<?xml version="1.0" encoding="UTF-8"?>
<VTKFile type="UnstructuredGrid" version="0.1" byte_order="LittleEndian">
<UnstructuredGrid>
<Piece NumberOfPoints="30017" NumberOfCells="60030">
<PointData>
<DataArray type="Float64" Name="Color" Format="ascii">
179056.33579215684
179056.3357921569
39790.29684270157
39790.29684270158
179056.33579215687
39790.29684270153
179056.33579215684
-19895.148421350736
-19895.148421350747
0
0
-19895.14842135075
-19895.148421350747
39790.29684270154
39790.29684270152
179056.33579215687
179056.33579215684
39790.296842701544
179056.33579215684
179056.33579215684
0
-19895.14842135075
-19895.148421350754
39790.29684270154
39790.29684270152
179056.33579215684
39790.29684270153
179056.33579215687
0
-19895.148421350743
-19895.148421350736
39790.29684270154
39790.296842701544
179056.33579215687
39790.296842701544
179056.33579215684
179056.33579215684
179056.33579215684
179056.33579215693
39790.29684270156
39790.296842701566
179056.33579215687
39790.296842701544
-19895.148421350743
-19895.14842135074
0
179056.33579215684
179056.33579215687
39790.296842701566
39790.296842701544
179056.33579215687
39790.296842701544
-19895.14842135075
-19895.14842135075
0
179056.33579215684
39790.296842701544
179056.33579215687
39790.29684270155
-19895.148421350754
-19895.14842135075
0
179056.33579215687
39790.296842701544
0
-19895.148421350757
-19895.148421350765
39790.296842701515
39790.296842701515
179056.3357921568
39790.296842701515
179056.3357921568
179056.33579215684
0
-19895.148421350765
-19895.148421350757
39790.296842701515
39790.296842701515
179056.33579215687
39790.296842701515
179056.33579215684
179056.33579215684
179056.33579215684
179056.33579215687
39790.296842701544
39790.296842701566
179056.3357921569
39790.29684270155
-19895.148421350754
-19895.148421350743
0
181898.49985234978
39790.296842701515
42632.4609028945
173372.00767177087
34105.96872231561
153476.85925042015
-19895.148421350765
-17052.984361157796
0
179056.33579215684
179056.33579215684
39790.296842701544
39790.29684270154
179056.33579215687
39790.29684270153
-19895.148421350754
-19895.14842135077
0
179056.33579215684
39790.29684270155
181898.4998523498
42632.46090289452
-19895.148421350736
-17052.984361157804
0
173372.00767177093
34105.968722315585
179056.33579215684
39790.29684270153
179056.33579215687
39790.29684270154
-19895.148421350765
-19895.148421350757
0
179056.33579215684
39790.29684270153
0
-19895.148421350757
-19895.148421350757
39790.296842701515
39790.29684270153
179056.33579215687
39790.29684270153
179056.33579215684
179056.33579215684
0
-19895.148421350736
-19895.148421350736
39790.29684270152
39790.29684270153
179056.33579215684
179056.33579215684
39790.296842701544
179056.33579215687
0
-19895.148421350757
-19895.148421350757
39790.296842701515
39790.29684270153
179056.33579215684
179056.33579215684
39790.29684270153
179056.33579215687
181898.49985234984
39790.296842701544
42632.46090289453
173372.00767177093
34105.96872231561
153476.85925042015
-19895.14842135075
-17052.984361157778
0
39790.29684270155
181898.4998523498
42632.46090289452
-19895.148421350754
-17052.98436115779
0
173372.00767177093
34105.9687223156
153476.85925042015
179056.33579215684
39790.29684270154
181898.4998523498
42632.46090289451
-19895.148421350757
-17052.98436115778
0
173372.00767177096
34105.96872231561
179056.33579215684
39790.296842701544
179056.33579215684
39790.29684270154
-19895.148421350757
-19895.14842135075
0
179056.33579215687
39790.29684270153
179056.33579215684
181898.49985234987
39790.29684270156
42632.46090289453
173372.00767177096
34105.9687223156
-19895.148421350743
-17052.98436115778
0
179056.33579215684
39790.29684270154
179056.33579215687
39790.29684270153
-19895.148421350757
-19895.148421350754
0
179056.3357921569
39790.296842701544
179056.33579215684
39790.296842701515
179056.3357921568
39790.29684270154
-19895.14842135077
-19895.148421350765
0
179056.3357921568
39790.296842701544
0
-19895.148421350765
-19895.148421350757
39790.296842701515
39790.296842701515
179056.3357921568
179056.33579215684
39790.29684270153
179056.3357921568
0
-19895.148421350754
-19895.148421350765
39790.296842701515
39790.29684270153
179056.33579215684
179056.33579215684
39790.296842701515
179056.33579215684
179056.33579215687
39790.296842701544
39790.296842701566
179056.3357921569
39790.296842701515
179056.33579215684
-19895.148421350754
-19895.14842135077
0
179056.33579215687
39790.29684270154
39790.296842701566
179056.33579215687
39790.29684270155
179056.33579215684
-19895.148421350757
-19895.148421350743
0
0
-17052.984361157796
-19895.148421350754
42632.46090289448
34105.968722315585
173372.00767177093
153476.85925042015
39790.29684270153
181898.4998523498
179056.3357921569
39790.29684270156
39790.296842701566
179056.33579215687
39790.29684270153
179056.33579215684
-19895.148421350743
-19895.148421350765
0
179056.3357921569
39790.29684270155
39790.29684270155
179056.33579215687
39790.296842701544
179056.33579215684
-19895.148421350757
-19895.148421350743
0
179056.33579215684
181898.49985234987
39790.29684270156
42632.46090289453
173372.00767177093
34105.96872231559
-19895.148421350747
-17052.98436115779
0
0
-19895.148421350765
-19895.148421350757
39790.296842701515
39790.296842701515
179056.3357921568
179056.33579215684
39790.29684270153
179056.3357921568
39790.29684270153
181898.49985234987
42632.4609028945
-19895.148421350765
-17052.984361157785
0
173372.00767177093
34105.96872231559
153476.85925042015
179056.33579215684
181898.49985234987
39790.296842701544
42632.46090289452
173372.00767177093
34105.96872231561
-19895.14842135075
-17052.98436115778
0
179056.33579215684
39790.29684270153
179056.33579215684
39790.29684270154
-19895.148421350765
-19895.148421350747
0
179056.33579215687
39790.296842701544
0
-19895.148421350757
-19895.14842135075
39790.296842701515
39790.29684270153
179056.33579215687
39790.29684270153
179056.33579215684
179056.33579215684
179056.33579215684
179056.33579215687
39790.29684270154
39790.296842701566
179056.3357921569
39790.29684270154
-19895.148421350757
-19895.148421350747
0
179056.33579215684
179056.33579215684
39790.29684270153
39790.29684270154
179056.33579215684
39790.29684270153
-19895.148421350757
-19895.14842135077
0
179056.33579215684
39790.296842701544
39790.29684270153
179056.33579215684
39790.29684270153
-19895.14842135075
-19895.14842135075
0
0
0
0
0
0
0
0
0
0
0
0
0
0
0
0
0
5.060855692261286E-14
0
0
2.6246869618388065E-13
0
0
2.4531139787978356E-13
1.4869572908486893E-13
5.060855692261286E-14
3.605409614245974E-14
0
1.1153526253153981E-13
2.565653537503784E-13
0
4.130498607991159E-13
8.48348857536849E-14
0
4.109382206701126E-13
0
0
4.4097268582130255E-13
0
8.48348857536849E-14
0
2.872295404579506E-13
6.049073054702729E-14
1.8510880432761216E-13
0
0
0
0
0
0
0
0
0
0
0
0
1.4351558045941226E-13
0
1.0399389859477059E-13
1.3126986324617485E-13
2.600854354484046E-13
1.0399389859477059E-13
8.167807765702656E-14
0
1.67303400431941E-13
0
0
7.178524867606351E-14
0
3.6921009272081587E-13
0
3.552441619820065E-13
2.086999371560375E-13
1.7790243006450836E-13
7.178524867606351E-14
2.1980022228093645E-13
0
0
3.552441619820065E-13
3.6921009272081587E-13
3.3566332315395785E-13
7.178524867606351E-14
7.178524867606351E-14
0
0
0
0
0
1.032043726557015E-13
0
0
1.8001825162328003E-13
0
3.4735504937909045E-13
1.4648438533717405E-13
0
1.7924996159970955E-14
7.34211320040372E-13
3.644733944866218E-13
7.555825072742559E-13
2.565653537503784E-13
0
0
0
0
0
9.21701887450024E-14
0
6.754767966338574E-14
0
1.276303425738901E-13
3.404523420554494E-13
1.032043726557015E-13
0
6.565185558228776E-13
0
0
1.272831166612501E-13
0
0
0
0
0
0
0
0
0
0
0
0
0
9.592809327742096E-13
6.134194360210063E-13
0
0
0
9.290786182352908E-14
0
4.582940901214658E-13
0
6.483005796969371E-13
1.0299476447446493E-12
4.858130477700223E-13
1.2741655561492048E-13
4.092578363634432E-13
0
4.203853262892686E-13
6.24823619632411E-13
0
1.0762641065311402E-13
1.1356461452125707E-12
2.2517743092338638E-13
1.9218446679336607E-12
2.2909185557157927E-13
5.967266216738068E-13
0
0
0
0
0
0
0
0
0
0
0
0
2.30593514051113E-13
0
4.0236402540712757E-13
0
0
0
0
0
0
0
0
0
0
8.750215996866566E-13
1.7958162983833767E-12
6.134194360210063E-13
2.2399407832360725E-13
0
7.110245147132842E-13
0
0
0
3.350368367627452E-13
7.003003962692581E-13
-4.987241299117577E-14
2.30593514051113E-13
2.8171188402651073E-13
0
3.5158993786711863E-13
1.7918123243553425E-13
2.545662333225002E-13
6.232413629505752E-13
0
3.9015525722280516E-13
0
6.844151774171718E-13
1.0296891151745869E-13
0
0
0
0
0
0
0
0
3.913825753094488E-13
0
2.545662333225002E-13
8.99430759991774E-13
0
1.781486663204523E-13
7.234927549342462E-13
1.1939376990103915E-13
3.1427104706004403E-13
4.736739648981473E-13
2.0480608677251583E-13
3.562973326409046E-13
5.625720197327938E-13
0
1.0208549341280616E-13
5.188605188434148E-13
0
7.794867833718496E-13
1.576752786806582E-13
0
8.582638051178804E-13
0
0
0
0
0
0
0
0
0
0
0
0
0
0
0
0
0
0
0
0
0
0
0
0
0
0
0
9.959112514708033E-13
1.5184950494271823E-12
1.835055069503483E-12
2.1273669958954302E-13
0
6.670885314488271E-13
1.2744707192892027E-12
1.124977934386686E-12
2.594302594217074E-13
0
0
0
0
0
0
0
0
0
0
0
0
1.5664640565304068E-12
0
3.0043370886343396E-13
3.385070105870807E-13
0
0
2.5483311122984096E-13
0
0
0
0
0
0
0
0
7.420637304448535E-13
1.654580953669308E-13
3.9747073734257774E-13
0
6.075157019989174E-13
0
0
8.89055752114851E-13
0
2.43477871946437E-13
2.327665068589358E-12
4.4656333963547896E-13
8.593161720255753E-13
4.0015083373930947E-13
6.075157019989174E-13
0
0
0
0
0
0
0
0
0
0
0
0
0
5.621164038473936E-13
8.995475535579449E-13
1.380907628440538E-12
2.6526138787135514E-13
1.5834976355026013E-12
2.810582019236968E-13
3.629630730759608E-13
0
0
0
0
0
0
0
0
0
0
0
0
0
0
0
0
0
0
0
0
0
0
0
0
0
0
0
0
0
0
0
0
0
0
0
0
0
0
0
0
0
0
0
0
0
0
6.534232653856634E-13
0
4.2429982162561824E-13
1.1910489661920507E-12
1.248785054275125E-12
5.685892736361356E-13
2.4648639373247046E-13
0
5.336522623374717E-13
3.584902824868108E-12
1.1853582465500418E-12
7.104040228129256E-13
1.044220286699163E-12
0
0
2.0185368365164744E-13
0
0
7.296591136486201E-13
2.468078298856907E-13
1.587102726768103E-12
0
0
4.105567468628126E-13
0
2.087930967866742E-12
0
0
0
0
0
0
0
0
0
0
2.299182614216053E-12
8.553325956341442E-13
8.36563348123968E-13
4.645447462907039E-13
7.086857022250367E-13
0
0
0
0
0
0
0
0
1.448440405087881E-12
2.364331995718915E-13
0
0
0
1.250182308013355E-12
0
2.1715473180805923E-13
0
0
0
0
0
0
1.4129979253369656E-12
1.0991123642023887E-12
1.5240442580798637E-13
1.355886445321627E-12
7.67996587581946E-13
0
4.710093410179966E-12
1.7277141272720617E-12
9.475841372105404E-13
9.431116688118955E-13
0
6.150194092270185E-13
3.9239098398570865E-13
0
5.198727981092295E-13
2.022002124091225E-12
1.5377635103740211E-12
4.0997031394949165E-13
1.4400631444750426E-12
0
1.7071661274642796E-12
0
0
0
0
0
0
0
0
0
0
1.0754534488503724E-12
1.6298903446519928E-12
0
0
0
0
0
0
0
0
0
0
0
0
0
0
0
0
0
0
0
0
0
0
0
0
0
0
0
6.069004703779628E-13
0
3.9239098398570865E-13
0
0
0
1.1599069896770737E-12
2.263681045353942E-13
4.882175801180029E-13
0
0
0
0
0
0
0
0
0
0
0
0
0
0
0
0
0
0
0
0
0
0
0
0
0
0
0
0
2.938312914212413E-13
0
1.1780125909504814E-13
4.5459370472645085E-13
6.314337551465037E-13
0
0
0
0
0
0
0
0
0
3.269911657541338E-13
0
1.611678572505525E-14
0
0
0
8.005912463747104E-13
9.397607354272282E-13
7.874983527903368E-13
0
3.428584918152407E-12
1.7613049992720983E-12
3.587080939720574E-12
2.241248593945357E-12
1.1729447447075231E-12
0
0
3.407268956314907E-13
0
1.842496658450434E-12
0
1.900839096208897E-12
3.2285864131914115E-12
2.3790723988954942E-12
0
4.323064556488671E-12
2.6589221903556296E-12
5.811498339149662E-13
1.6060305736630202E-12
5.341519246189169E-13
0
0
2.673764961448968E-12
0
5.377267244251862E-13
0
4.488084371534634E-13
2.636661597297157E-12
5.804911957566037E-13
2.673764961448968E-12
2.208716815459523E-12
5.377267244251862E-13
0
0
6.304293471004793E-13
0
0
3.173251492954049E-12
0
0
1.67317741288184E-13
0
0
8.501284307877046E-13
9.838793304453791E-14
8.561936320759615E-13
1.2144500639650184E-13
0
8.437198625972382E-13
1.7096369974817404E-12
3.330370280907925E-13
5.459895456856408E-13
1.972214026533259E-12
1.6940583488728923E-12
1.8260486622687743E-12
7.484185869092921E-13
9.236054902383198E-13
0
1.7449505771449075E-12
1.3292295373815037E-12
2.2731776693582515E-12
1.6830320625547061E-12
2.995121313641283E-13
9.207680359721794E-13
2.030212478237486E-13
0
1.1533093162657592E-12
2.5330912255874545E-12
4.431333335409022E-13
7.603013950548137E-13
3.5167660194785632E-12
0
0
0
0
0
0
0
1.2562245936467368E-12
2.177685440463736E-13
1.8001528806424185E-12
0
2.2641799732509364E-12
3.6433710500715314E-13
4.4786302957889847E-13
0
0
0
0
0
0
0
0
0
0
8.559375402414577E-13
0
1.6723629869998885E-13
6.583644757748328E-13
5.184747735925033E-13
1.2233200500195802E-12
0
0
0
0
0
0
0
0
0
0
3.868596863551729E-13
0
0
5.955770476015587E-13
0
0
0
0
0
0
0
0
0
0
0
0
0
0
0
0
8.492359911905285E-13
1.1112342834264935E-12
9.003277709917454E-13
1.921447593013175E-13
0
4.787679709930984E-13
2.629763991707583E-12
2.1548338635477553E-12
2.674775946329868E-13
5.370273903477279E-13
1.4461337507923314E-12
0
3.515669253863444E-12
0
6.996737926500367E-13
2.0480402168841242E-12
7.427747097137657E-13
1.3993475853000735E-12
0
0
0
0
0
0
0
0
0
4.73228824465424E-13
0
0
1.0682253673753617E-13
0
0
0
0
0
2.243408041347403E-12
2.0734827617034292E-13
4.522617014885125E-13
1.060221509204309E-12
1.013410515427167E-12
9.886887675413855E-13
2.2613085074425624E-13
1.9944193549392537E-12
0
0
0
0
1.108544614030663E-13
0
0
1.0239834725471272E-12
0
0
1.2233366176352463E-12
2.5165004545368545E-12
8.225065038156118E-13
0
0
0
0
0
0
0
0
0
3.146174875323261E-12
2.4402548172256414E-12
6.304293471004793E-13
6.332120303653687E-13
0
3.073699565874922E-12
0
0
0
0
0
0
0
0
1.1024505786024335E-12
0
1.6974819576507317E-12
0
0
0
0
0
0
0
1.2569489600946509E-12
0
1.864301154633695E-12
0
0
0
5.482385933462261E-13
4.315613007965892E-12
8.720597968506797E-13
2.830797274221331E-12
0
5.678474490544244E-13
0
0
0
0
0
0
0
0
0
0
0
0
0
0
2.1989166439903088E-13
0
1.4248025155538827E-13
0
0
1.4248025155538827E-13
0
0
1.9370144871052802E-13
0
0
0
0
3.971303101302773E-13
3.538611798731259E-13
1.644749719482897E-13
0
0
0
0
0
0
0
8.501284307877046E-13
8.283025439454634E-13
7.303607021717396E-13
1.67317741288184E-13
1.67317741288184E-13
0
1.862457875036652E-12
3.6433710500715314E-13
0
9.560986766971504E-13
6.040254785797259E-13
1.432459718991698E-12
8.088731448695532E-13
1.6922204983054693E-12
0
0
0
0
0
0
0
0
0
0
6.597259400758026E-13
3.62919153697677E-13
7.433197692965161E-13
2.9312974177400434E-13
2.4114634365603003E-13
0
0
0
0
0
1.8013900196517377E-13
0
1.0396679623594862E-13
0
1.7039179710027497E-13
3.0670052018659113E-13
2.5802623556609233E-13
7.253381046639638E-14
0
1.7647273512528636E-13
1.4324973877116213E-13
1.3105254483343175E-13
1.0396679623594862E-13
0
0
0
1.4513889118588964E-13
0
7.116248482237962E-13
0
1.5089157740478141E-12
2.924334300397066E-13
1.4349471388349504E-12
0
2.162388717569374E-12
4.0951222665051905E-12
0
8.159065724581306E-13
0
0
6.400581460977033E-13
0
3.22615378939329E-12
0
1.7703600909971318E-12
0
3.4020152439962584E-13
3.594143474912695E-12
7.701844652576125E-13
7.174735694174752E-13
0
0
0
0
0
0
1.240962085622542E-13
0
0
6.187303685458954E-13
0
0
0
4.870776586206233E-14
0
0
3.526370661164317E-14
0
0
0
0
0
0
0
0
0
0
0
0
0
0
0
0
0
0
0
0
0
0
0
0
1.9123927987530903E-12
3.4634432287878558E-12
6.295089644967804E-13
1.2608586942009586E-12
2.2879178752967137E-12
4.407806009618462E-12
5.522432321840181E-13
1.6393419640582932E-12
2.777601849790022E-12
0
4.833358599022416E-13
2.2297210433231977E-12
3.052110491511567E-13
1.4414681382509046E-12
0
0
0
0
4.172724655297917E-12
5.226312324069131E-12
2.0716635852135005E-12
1.5704667873496537E-12
1.041272672999742E-12
2.9009506519589556E-12
2.1763691917559334E-12
2.0340853001838E-12
0
3.381132747819198E-12
1.8366050644947894E-12
3.6926271216365004E-12
1.5090636329752785E-12
1.2197385966796476E-12
0
1.3366813706367474E-12
2.0113955026336755E-12
0
3.531972584036486E-12
3.590711176486795E-12
3.532658660906233E-12
2.340973492900679E-12
2.422816995919555E-12
2.1000741171106687E-12
1.0701746476910826E-12
4.339976187724725E-13
9.044827829575988E-13
0
7.487104665408976E-13
1.7964883872375624E-12
1.7960961948227394E-12
1.2080509571594518E-12
1.7960961948227394E-12
1.2210205858760426E-12
9.341268407667416E-13
2.5768274458924907E-12
5.074447013385357E-13
1.1368240105520025E-12
1.1779063355421797E-12
0
1.9187215764485027E-13
3.0276347574675034E-12
3.232742284634983E-12
1.2827004598074577E-12
3.583443757471956E-12
3.532658660906233E-12
2.3416925972370534E-12
0
1.148821989332043E-12
1.0981806167197862E-12
2.29440286459522E-12
7.458250447314991E-13
7.458250447314991E-13
0
0
0
7.080909709382404E-13
1.6176747518162368E-13
5.210120763228678E-13
8.041742205691285E-13
0
1.0739034971189173E-13
1.2755925894513668E-12
9.912007835327898E-13
4.807248900468467E-13
7.497731556879973E-13
7.253227432284181E-13
6.039757763173011E-13
1.6024163001561556E-13
1.2820150129151649E-12
0
0
0
0
0
0
0
1.5119370303677043E-12
0
3.0110533657430366E-13
2.231894745267718E-12
0
4.4139390429435094E-13
6.4315274257531175E-12
2.610670839258836E-12
2.780464798756667E-13
1.287241650951014E-12
1.6261879343373193E-12
0
1.9301715471650806E-13
0
0
1.3762269366197521E-12
0
0
1.6436424887835249E-12
3.3525793772090988E-12
1.1024505786024335E-12
0
0
0
2.1636614845183876E-12
1.7774683613596632E-12
1.2209609364015157E-12
4.4139390429435094E-13
1.4233909335372612E-12
0
0
0
0
2.3295112094089437E-12
1.2733755669414997E-12
1.622458997816397E-13
1.6477865538399859E-12
8.476138736351052E-13
0
1.2864780993095535E-12
2.622490755385408E-12
8.730123795111449E-13
0
0
1.2223828829926132E-12
0
0
2.458985067204476E-13
4.059493006895772E-12
3.268431456499855E-12
8.159065724581306E-13
4.402382949115602E-13
0
2.0186075504136923E-12
0
0
0
0
2.0200985262015653E-12
2.0213047025728287E-12
4.049718339931883E-12
1.3420294392885349E-12
1.3420294392885349E-12
0
0
0
3.331747417442099E-12
6.326123294873985E-13
1.66308282451371E-12
6.683406853183737E-13
3.50895637619448E-13
0
0
0
0
0
0
0
0
0
0
0
2.588218359160735E-12
1.7316790145128067E-12
2.5955302883988466E-12
0
2.0716968619243287E-12
1.7316790145128067E-12
4.4703364292597286E-13
0
5.185859435200672E-12
4.41546301673166E-13
2.1841932100431395E-12
0
2.2794771499935193E-12
0
0
4.718772805128356E-13
0
0
5.33439248241303E-13
3.9939778414471883E-13
-2.5610597323138178E-14
1.7630339892936157E-13
2.6126547335135913E-13
1.7597687994706442E-12
3.5344367416619437E-12
1.1712058507867138E-12
2.688626134287452E-13
0
1.3904520910909599E-12
0
1.3412439112506928E-12
1.3610268433816283E-12
1.082844284591739E-12
2.627617705696914E-13
1.1895032000933494E-12
0
2.559258637318707E-12
1.1430533285684737E-12
2.335664493796841E-12
1.0294273552824902E-12
7.615201203930111E-13
0
0
0
8.955244840662965E-13
3.7188940461707863E-13
2.605356356150246E-13
2.325073491381327E-13
0
7.768858577529938E-14
5.07981292155938E-13
9.1239356562805E-14
3.3200481405177503E-13
0
3.282204807436717E-13
4.5750946790466E-13
5.107935831681896E-13
9.280505982292987E-13
1.4246619558127208E-13
3.282204807436717E-13
3.9076050342964953E-13
0
1.8632946014227636E-12
0
1.2523302494692153E-12
1.5512347370998687E-12
0
2.7449378688946143E-13
3.730378484764675E-12
3.3884880606885465E-13
1.6003558217263934E-12
0
0
0
0
0
0
0
0
0
0
0
0
0
0
0
2.21950242383185E-12
0
1.4819597101270942E-12
0
1.8411500946537622E-12
2.1190746504154975E-12
3.633664849286004E-12
1.2141241927601086E-12
3.060313253765917E-12
3.803138989206384E-12
4.4688369443806204E-12
1.7785357724547717E-12
3.2092117920554335E-12
2.5892429330090713E-12
3.0733217799066995E-13
6.471835048533106E-13
1.6639671164201283E-12
0
8.320204923435489E-13
0
4.168694578050061E-12
4.142442734257566E-12
3.318257734447244E-12
8.320204923435489E-13
0
0
0
0
0
0
3.834230429270483E-13
0
1.912624810876054E-12
0
0
5.580398904620135E-13
0
0
2.7731637278904086E-12
0
2.8901801935538476E-13
1.503627424204207E-12
0
3.753884465023157E-12
3.766129976001156E-12
7.630697537446557E-13
3.773954571895288E-12
7.531633021848867E-13
8.811647284532017E-13
1.4896103415419352E-12
2.1948596228331076E-13
1.0848954906972849E-12
1.4757104078581102E-12
0
1.419132941396978E-12
1.0416465448594107E-12
8.497155858494987E-13
0
0
0
0
0
0
0
0
0
0
0
0
4.01495409439756E-13
7.737302251629212E-13
2.728196591983594E-13
5.160720836622068E-13
0
4.737794078292933E-13
1.6552869475775494E-12
7.726756845555456E-13
6.468672711121737E-13
0
0
0
0
0
0
0
0
0
0
0
0
0
0
2.480889219880424E-13
0
9.65827240946079E-14
0
3.4888530011555876E-13
0
0
2.1952579467026577E-13
0
3.0353890226433787E-13
6.484405079222371E-13
2.1952579467026577E-13
0
0
0
0
0
0
0
0
0
0
0
0
0
0
0
0
4.802998019885124E-13
8.75533832372387E-14
6.960136562997898E-13
1.4309062671048025E-12
2.5316102418447776E-13
4.655092759442362E-13
1.5908921162554374E-12
0
1.031031035312044E-12
8.703713366966848E-13
2.0353996999057744E-13
0
0
7.052661357406736E-14
0
1.7631853305821586E-14
0
0
2.6193604551505927E-13
6.499356816231449E-14
5.1845887786120734E-14
9.623261742987547E-14
3.526370661164317E-14
3.064102124912163E-14
0
1.4008965183879475E-13
9.758532642047579E-14
1.973159739311912E-14
7.986977524030713E-14
0
0
0
0
0
0
0
0
0
0
9.227795900612416E-13
8.454967199107947E-13
4.69934879660671E-13
2.0096477331931002E-13
3.985204537950021E-13
0
1.9299209973579606E-13
0
0
3.1058170626889495E-13
0
5.676038834112568E-13
1.7289322909151125E-13
3.131788924636238E-13
0
1.8843947693020133E-12
0
0
3.727898933317127E-13
1.3144585261669642E-12
0
0
2.679072348894791E-13
0
0
0
0
0
0
0
0
0
0
0
0
0
0
0
1.116079780924027E-12
0
1.6956003784468608E-12
5.282978475833116E-13
2.616712775699507E-12
6.144722964668537E-13
0
0
0
0
0
0
0
1.467202000550103E-12
1.7736744221926183E-12
3.0208463289693557E-12
9.996766751252043E-13
2.2450308464110724E-12
0
0
0
0
0
0
1.2410201679371943E-12
0
8.312925985884899E-13
2.5040395620725468E-12
0
4.998383375626022E-13
3.494573668114939E-12
1.9565466025191485E-12
2.033028961373346E-12
0
7.471907877041232E-13
6.135023041008879E-13
0
4.901350077454474E-13
3.985500130640066E-13
7.049527683798796E-13
1.4822616864891755E-12
4.901350077454474E-13
0
0
0
0
0
0
0
0
0
0
2.0998454411372476E-12
0
0
4.1564629929424493E-13
0
0
0
0
0
0
0
0
1.814323976518974E-12
2.7132709026201187E-12
2.7177536406456458E-12
5.441813436765823E-12
1.814323976518974E-12
1.5032197947607654E-12
0
4.3539123433979885E-12
2.23472675730358E-12
8.687256567779526E-13
0
4.337267553019739E-12
3.507436046091292E-12
8.687256567779526E-13
4.4194226037491063E-13
0
2.154426388363441E-12
0
3.774519845329912E-12
7.546656012222984E-13
7.783946566856403E-13
1.8788057557292982E-12
3.731335402450001E-13
0
6.357888362747471E-13
2.662881636830958E-13
1.731882152239505E-13
1.1539674442913495E-13
5.769837221456748E-14
0
0
0
1.0872678976139766E-12
4.3758478386317066E-13
7.455797866634254E-13
1.967911293539759E-12
0
3.221104651390756E-13
0
0
0
0
0
0
0
0
8.65126874622336E-14
0
0
6.0125016923605E-13
2.067542611694781E-12
1.0754006969307177E-12
3.8206746262313405E-13
1.3557022813730458E-12
1.1644321800237019E-12
2.679072348894791E-13
0
0
9.231533000086955E-13
0
1.2361657966243838E-13
0
0
0
0
0
0
0
2.1887445557953765E-13
0
1.0609053039651035E-12
0
0
0
0
0
0
0
0
0
0
1.8171467027139007E-12
2.130352475545455E-12
3.602305365090557E-12
1.2055431649445917E-12
3.1152461969183607E-12
2.273884854445796E-12
4.537976395747992E-12
1.5032197947607654E-12
0
2.359490538396588E-12
3.6305358178810296E-12
1.4826324218825004E-12
1.1158362427551486E-12
7.273655206660736E-13
1.832847684277402E-12
1.4778702997617597E-12
3.727898933317127E-13
0
0
0
6.215070304939205E-13
0
3.0568373693668615E-12
0
0
0
0
0
0
0
0
0
0
0
0
1.1279258431872078E-12
7.974936214419115E-13
1.0540570395304998E-12
2.1887445557953765E-13
1.0499050080353123E-12
0
1.6487853421263602E-12
1.6597139227660673E-12
1.10618502539843E-12
5.066182191040168E-13
0
1.1089623014502967E-12
1.6597139227660673E-12
2.1378151860976634E-12
1.1012339566377892E-12
4.196236053193082E-12
4.596521198126017E-13
1.3518811164508573E-12
9.623003319866904E-13
0
1.307501649088136E-13
2.4507845511475107E-12
3.9896757857557193E-13
1.5263904562786906E-12
0
4.947125305439701E-13
2.4484002494824165E-12
5.878222379081881E-13
0
0
2.946263753251417E-12
0
0
1.7446426580800768E-12
6.086814388449053E-13
1.1756444758163762E-12
1.6969773347579932E-12
0
1.1408981467708376E-12
1.7880767648036145E-12
3.0370589066122328E-12
1.2525748814356558E-12
2.2331778315417328E-12
1.4470074333495288E-12
0
2.2363862418620677E-12
2.4506499064334233E-12
1.0540708355995342E-12
2.065350466622758E-12
1.6197578494416377E-12
4.1564629929424493E-13
0
1.5003409429902818E-12
1.5271962447779612E-12
3.048857463581641E-12
1.0062901320987994E-12
1.0062901320987994E-12
0
0
0
1.3839842620962074E-12
0
9.33901251268928E-13
1.1408981467708376E-12
0
1.7216092395631588E-12
3.4223408681578764E-12
2.718854405780364E-13
1.4497314445566224E-12
0
0
0
0
0
0
0
1.4685676071167852E-12
2.1937687818971317E-12
0
6.170893847871714E-13
7.555736248422646E-13
5.664910628037097E-13
1.2503266521724282E-13
5.118473805724937E-13
5.3891062809400416E-14
0
4.3278138829018846E-13
0
1.1114676253521646E-12
1.3066423901450707E-12
1.2032664863657273E-12
4.687370591136791E-13
8.439133424471168E-13
5.940167960091561E-13
1.219007798588125E-12
3.985500130640066E-13
0
9.73791237796921E-13
2.3887079990619066E-13
1.998449836630322E-12
2.7708428084019715E-13
9.816793857875533E-13
8.000676960912729E-13
7.997367905586584E-13
0
0
9.423101991532905E-13
6.418791591490438E-13
9.848694308330936E-13
3.9766820846464506E-13
9.54023016120608E-13
7.062953937210399E-13
1.3504466354971936E-12
4.4536332938311024E-13
0
6.288624045007695E-13
4.2843285628061205E-13
2.796983310906322E-13
4.886021251890879E-13
1.9967211676780414E-13
1.0945581106220978E-13
2.7950115832619903E-13
8.958216653956711E-14
0
0
0
0
0
0
0
0
0
1.5038371406057905E-13
0
0
2.734783972370363E-14
0
0
1.2493482863704347E-13
6.167166139367335E-14
1.43270008056306E-13
3.596939491026539E-12
1.90809434694595E-12
1.6263733351987718E-12
1.2369404214186416E-12
2.0469202496728958E-12
0
1.3428093804268423E-12
0
1.892989905853223E-12
2.709820481855811E-13
3.711139454373357E-13
0
4.58833139595658E-13
9.608319501289198E-13
1.2365590935279233E-13
1.4119640777707082E-12
0
1.1733650932937764E-12
9.33901251268928E-13
2.722154015734376E-13
0
2.8108223600798736E-12
2.1968471848619181E-13
1.1955556932668711E-12
1.4593315262671006E-12
0
1.0469470948499974E-12
9.604429490980322E-13
2.570879481720323E-13
0
1.8332732694587144E-12
2.6712846943094253E-13
2.1014328482371475E-12
2.3879077737668526E-12
4.659018887483033E-13
0
4.081662045922867E-12
1.6294499708955109E-12
8.223958180304539E-13
2.7642789789817076E-12
1.6162948157665555E-12
1.5300516895048335E-12
1.41381339576886E-12
2.9008742949500987E-12
2.1620204597349783E-13
9.604429490980322E-13
1.2449221908188907E-12
0
0
1.3767353587006708E-12
9.216725101160438E-13
1.363053479770201E-12
2.738067862779519E-12
9.216725101160438E-13
2.622662862063601E-12
4.431102152343167E-13
9.1024050297414E-13
1.5206476158543372E-12
1.8816707729126717E-13
0
0
8.693849015524686E-13
0
0
1.2600321631999958E-12
0
0
4.588288174659452E-13
2.0313383224390185E-12
0
2.4931319396783497E-12
4.090742735074517E-12
8.231093920290802E-13
1.6478133762423594E-12
8.239066881211797E-13
0
0
0
0
0
0
0
0
0
0
0
0
0
0
0
0
0
0
0
0
0
2.6127976895098468E-12
2.6227865767309352E-12
1.7387698031049373E-12
1.0412485987856959E-12
0
2.224121613893207E-12
2.6227865767309352E-12
3.042758574324213E-13
1.1041107366524984E-12
0
0
0
6.11856911098472E-13
1.1151141064693368E-12
1.5794577260156412E-12
3.9026483369367763E-13
7.262817111937982E-13
0
1.0643537137699671E-12
1.3036307563733264E-13
5.661868728841465E-13
0
0
0
0
0
0
0
0
0
1.2884622508262505E-12
2.5478241989806565E-12
3.0770442907995157E-13
8.498312112939043E-13
1.0603842321463857E-12
0
1.3060785396044957E-12
0
0
2.6311919430377887E-13
0
0
0
5.626147642993735E-13
8.013474186548529E-13
0
0
1.3722693467821382E-12
0
2.6311919430377887E-13
0
1.0373845056693396E-12
4.711287299130259E-13
1.028066036941562E-12
1.1414387800034262E-12
2.274284725156902E-12
7.738496513650557E-13
2.374476008563373E-13
0
9.982350884354326E-13
0
0
0
0
0
0
0
0
0
0
0
0
0
0
0
0
0
0
0
0
0
2.2203280854873955E-12
4.447125608960495E-12
3.765688219291797E-13
1.4685676071167852E-12
1.8052974736605696E-12
0
0
0
0
0
0
0
0
0
0
0
0
0
0
0
0
1.307818570610675E-12
0
1.086587014226336E-12
8.571529032061659E-13
7.332595039566708E-13
0
1.2904081826767526E-12
2.2581747648051986E-13
1.1821373840262984E-12
7.120278098165656E-13
0
1.8498228805912686E-13
3.2587489609575644E-13
0
1.6070229893134409E-12
0
0
0
7.36252811596291E-14
0
5.394382375216261E-13
1.25493053826946E-12
2.8013280041554157E-13
1.185836538661865E-12
1.5646180676172672E-12
7.910933744617573E-13
3.1721934236706106E-13
2.8536831539248976E-13
0
1.5204141545080105E-12
0
0
0
0
0
0
0
0
0
1.8745760459529496E-13
1.3679800745809995E-13
1.0939135889481451E-13
-2.9398996360538373E-15
0
8.955394476666089E-14
0
0
0
0
0
0
0
0
0
0
0
0
0
0
0
0
0
0
1.1236602952681917E-12
0
0
7.332595039566708E-13
0
0
2.220760904435962E-12
1.4242391817713171E-13
9.31293343696586E-13
1.9142371219256917E-12
8.432467004465975E-13
6.28380699208323E-13
8.420793327105804E-13
9.200318646808083E-13
0
2.5348067739938926E-13
7.872350715033206E-13
1.9798345179887524E-13
0
1.454808979374294E-12
2.940684844895308E-13
0
0
0
7.464572493771119E-13
0
1.0833850662025524E-12
0
0
0
0
0
0
1.8873846379251876E-12
4.022848808940734E-13
9.950524202064165E-13
3.7322862468855593E-13
1.6228168731101892E-13
0
0
0
0
0
0
0
0
0
0
1.9139496053242014E-12
3.0518309676464165E-13
7.782351947354945E-13
6.301783387136475E-13
1.212101900633988E-13
0
0
2.443450302062397E-13
1.1930815120475476E-12
8.947788927752592E-13
1.8378337684308372E-13
1.4084675359866082E-12
1.7443547828198042E-13
2.386753892395253E-13
0
2.995953491955047E-13
8.560468038846431E-13