/*--------------------------------*- C++ -*----------------------------------*\
  =========                 |
  \\      /  F ield         | OpenFOAM: The Open Source CFD Toolbox
   \\    /   O peration     | Website:  https://openfoam.org
    \\  /    A nd           | Version:  6
     \\/     M anipulation  |
\*---------------------------------------------------------------------------*/
FoamFile
{
    version     2.0;
    format      ascii;
    class       volScalarField;
    location    "500";
    object      epsilon;
}
// * * * * * * * * * * * * * * * * * * * * * * * * * * * * * * * * * * * * * //

dimensions      [0 2 -3 0 0 0 0];

internalField   nonuniform List<scalar> 
768
(
576.063
314.621
314.621
314.621
314.621
314.621
314.621
314.621
314.621
314.621
314.621
314.621
515.543
140.75
66.691
52.1424
49.2997
48.7475
48.6466
48.6292
48.6139
48.6216
48.6384
48.6573
466.522
112.875
41.012
26.4699
23.567
22.9815
22.8698
22.8593
22.856
22.8455
22.8651
22.8794
426.008
99.6666
35.7577
23.1659
20.7128
20.2424
20.1552
20.1392
20.135
20.1352
20.1358
20.1371
391.966
89.5525
33.0034
22.2459
20.2674
19.8894
19.8198
19.8072
19.8072
19.8078
19.8067
19.807
362.959
81.1248
30.9263
21.7356
20.1019
19.8104
19.7598
19.7523
19.7502
19.7487
19.7479
19.7501
337.948
73.9983
29.2603
21.339
20.0074
19.7719
19.7272
19.7236
19.7265
19.7259
19.7228
19.72
316.16
67.9743
27.9251
21.0441
19.9339
19.746
19.7088
19.7049
19.7086
19.7043
19.7049
19.7079
297.011
62.9323
26.877
20.8334
19.8692
19.7178
19.6905
19.6884
19.6931
19.6868
19.6866
19.6862
280.049
58.8547
26.082
20.6541
19.8266
19.6983
19.6707
19.6663
19.6737
19.6713
19.6663
19.6649
264.918
55.9484
25.4793
20.5155
19.8043
19.6808
19.6557
19.6493
19.6598
19.6641
19.6636
19.6571
251.339
50.9662
24.2926
20.3745
19.7563
19.6623
19.6394
19.6375
19.6476
19.6456
19.647
19.6501
314.621
314.621
314.621
314.621
314.621
314.621
314.621
314.621
314.621
314.621
314.621
576.063
48.6801
48.7112
48.7424
48.7703
48.7919
48.8079
48.8141
48.8085
48.7889
64.4049
141.471
515.543
22.8756
22.8881
22.9136
22.924
22.92
22.9219
22.9237
22.9187
22.923
37.6688
112.438
466.522
20.1391
20.1426
20.1459
20.1462
20.1462
20.15
20.152
20.1535
20.1533
32.364
99.0076
426.008
19.8071
19.8064
19.8084
19.8093
19.8086
19.8093
19.8116
19.8105
19.8103
29.8858
88.4383
391.966
19.7476
19.746
19.746
19.7495
19.7501
19.7514
19.7517
19.7498
19.751
27.9337
80.0002
362.959
19.7241
19.7233
19.7209
19.7212
19.7264
19.7298
19.7277
19.725
19.7266
26.5608
72.2288
337.948
19.7095
19.7099
19.7046
19.7025
19.7066
19.712
19.7107
19.7086
19.7094
25.2878
65.7
316.16
19.6893
19.6931
19.6892
19.6891
19.6892
19.6902
19.6895
19.6879
19.692
24.324
60.0924
297.011
19.6719
19.6737
19.6735
19.6718
19.6688
19.6739
19.6748
19.6741
19.6826
23.189
55.6865
280.049
19.6582
19.6628
19.6581
19.6534
19.6591
19.6643
19.6603
19.6567
19.6597
22.5419
51.3483
264.918
19.6437
19.6371
19.6439
19.6497
19.6441
19.6444
19.6451
19.6489
19.6515
22.2008
44.5707
251.339
58.642
28.6462
21.5078
19.9558
19.6994
19.6419
19.6235
19.6315
19.6397
19.631
19.6311
19.6314
26.1792
21.7412
20.1654
19.7444
19.6428
19.619
19.6104
19.6112
19.6139
19.6098
19.6108
19.6208
20.7959
20.0953
19.7591
19.6651
19.6347
19.6258
19.6103
19.6089
19.6179
19.6076
19.6098
19.6198
19.8391
19.7146
19.6525
19.632
19.6132
19.6098
19.602
19.5904
19.6022
19.5989
19.6007
19.6098
19.6311
19.6294
19.6239
19.6252
19.6216
19.622
19.6266
19.6364
19.6378
20.3344
27.1439
71.8482
19.6203
19.6209
19.6285
19.6298
19.6181
19.62
19.6291
19.6239
19.6223
19.7799
21.5914
28.9059
19.6183
19.6081
19.6115
19.6184
19.6103
19.6119
19.6137
19.6124
19.6249
19.6568
20.0138
21.3006
19.5999
19.5886
19.5884
19.5889
19.6005
19.6108
19.6121
19.5992
19.5933
19.6007
19.6905
19.9078
19.6417
19.6123
19.5985
19.5925
19.5882
19.5885
19.5846
19.5813
19.5839
19.5818
19.5813
19.5835
19.5982
19.5824
19.5803
19.5774
19.5754
19.5761
19.5736
19.5722
19.5727
19.572
19.5711
19.572
19.5806
19.5686
19.5687
19.5681
19.5657
19.5652
19.5643
19.5636
19.5636
19.5627
19.5626
24.8374
19.5706
19.5587
19.5589
19.5579
19.5572
19.5568
19.5561
19.5559
19.5554
19.5542
22.8322
51.2763
19.5817
19.5798
19.5794
19.5791
19.5809
19.5838
19.5855
19.5802
19.5809
19.5845
19.6068
19.6454
19.5711
19.5699
19.5701
19.5709
19.5703
19.5717
19.5716
19.571
19.5711
19.5732
19.5784
19.5855
25.6445
20.2454
19.6207
19.5666
19.5615
19.5621
19.5611
19.5633
19.5627
19.5636
19.5653
19.5674
51.9036
23.1275
19.86
19.5778
19.5557
19.5532
19.5539
19.5541
19.5541
19.5539
19.5558
19.5566
19.5613
19.5502
19.5498
19.5497
19.5503
19.5497
19.5485
19.5478
19.5476
20.0116
30.4141
171.989
19.5542
19.5423
19.5423
19.5431
19.5422
19.5418
19.5406
19.5404
19.5406
20.1077
30.9724
166.16
19.5468
19.5356
19.536
19.5363
19.5355
19.5345
19.5341
19.5341
19.5344
20.0702
30.287
160.713
19.5408
19.5298
19.5295
19.5293
19.53
19.5289
19.5286
19.5282
19.5285
20.0051
29.4505
155.612
19.5345
19.5244
19.5238
19.523
19.524
19.5234
19.5229
19.5226
19.5226
19.9414
28.6594
150.824
19.5294
19.5188
19.5182
19.518
19.5187
19.5182
19.5175
19.5175
19.5176
19.8846
27.941
146.323
19.5241
19.5137
19.513
19.513
19.5137
19.5136
19.5127
19.5128
19.5128
19.8351
27.2922
142.082
19.5186
19.5091
19.5086
19.5082
19.5087
19.5087
19.5082
19.5084
19.5083
19.7922
26.7053
138.081
19.5141
19.5052
19.5046
19.504
19.5048
19.504
19.5047
19.5035
19.5045
19.7545
26.1733
134.298
33.0216
33.957
34.0136
34.0192
34.0213
34.0241
34.0257
34.0267
34.0171
34.2333
40.1926
130.717
90.9286
91.2848
91.3325
91.3554
91.3716
91.38
91.3835
91.3776
91.3642
91.5418
93.9829
127.322
322.149
322.149
322.149
322.149
322.149
322.149
322.149
322.149
322.149
322.149
322.149
322.149
171.989
30.2564
20.285
19.5978
19.5496
19.5457
19.5465
19.5457
19.5469
19.5458
19.5476
19.5487
166.16
30.7966
20.3563
19.5981
19.5433
19.5399
19.54
19.5399
19.5399
19.5403
19.5412
19.542
160.713
30.1535
20.3016
19.5875
19.5371
19.5337
19.5336
19.5345
19.534
19.534
19.5343
19.5353
155.612
29.3619
20.2153
19.5746
19.5307
19.5279
19.5272
19.5289
19.5284
19.5279
19.5277
19.5289
150.824
28.6058
20.1293
19.5619
19.5247
19.5223
19.5217
19.5233
19.5229
19.522
19.5219
19.5232
146.323
27.908
20.0536
19.5507
19.5194
19.5174
19.5168
19.5182
19.5178
19.5171
19.5172
19.5185
142.082
27.2711
19.9875
19.5407
19.514
19.5127
19.5122
19.5132
19.5124
19.5122
19.5125
19.5134
138.081
26.6939
19.9287
19.5319
19.5091
19.5083
19.5083
19.5088
19.5083
19.5082
19.5082
19.509
134.298
26.1672
19.8775
19.5243
19.5044
19.5045
19.5033
19.5054
19.5031
19.5051
19.5038
19.5047
130.717
39.2321
34.289
34.0163
33.9936
33.9873
33.9843
33.9769
33.9861
33.9681
33.966
33.9911
127.322
93.6126
91.4656
91.3201
91.3101
91.2743
91.2818
91.2682
91.2338
91.25
91.2487
91.1799
322.149
322.149
322.149
322.149
322.149
322.149
322.149
322.149
322.149
322.149
322.149
322.149
)
;

boundaryField
{
    rotor
    {
        Cmu             0.09;
        kappa           0.41;
        E               9.8;
        type            epsilonWallFunction;
        value           nonuniform List<scalar> 
48
(
576.063
314.621
314.621
314.621
314.621
314.621
314.621
314.621
314.621
314.621
314.621
314.621
314.621
314.621
314.621
314.621
314.621
314.621
314.621
314.621
314.621
314.621
314.621
576.063
576.063
515.543
466.522
426.008
391.966
362.959
337.948
316.16
297.011
280.049
264.918
251.339
576.063
515.543
466.522
426.008
391.966
362.959
337.948
316.16
297.011
280.049
264.918
251.339
)
;
    }
    stator
    {
        Cmu             0.09;
        kappa           0.41;
        E               9.8;
        type            epsilonWallFunction;
        value           nonuniform List<scalar> 
48
(
322.149
322.149
322.149
322.149
322.149
322.149
322.149
322.149
322.149
322.149
322.149
322.149
322.149
322.149
322.149
322.149
322.149
322.149
322.149
322.149
322.149
322.149
322.149
322.149
171.989
166.16
160.713
155.612
150.824
146.323
142.082
138.081
134.298
130.717
127.322
322.149
171.989
166.16
160.713
155.612
150.824
146.323
142.082
138.081
134.298
130.717
127.322
322.149
)
;
    }
    front
    {
        type            empty;
    }
    back
    {
        type            empty;
    }
    procBoundary2to0
    {
        type            processor;
        value           nonuniform List<scalar> 
20
(
71.7963
29.1972
21.2596
19.899
19.6418
19.5843
19.5677
19.5568
19.5481
19.5417
19.5354
19.5288
19.5235
19.5183
19.5134
19.5094
19.505
33.9909
91.1844
322.149
)
;
    }
    procBoundary2to3
    {
        type            processor;
        value           nonuniform List<scalar> 
20
(
58.6521
26.1438
20.827
19.8406
19.6434
19.5968
19.5786
19.57
19.5609
19.5526
19.5463
19.54
19.5341
19.5283
19.5239
19.5192
19.5142
33.0193
90.9247
322.149
)
;
    }
}


// ************************************************************************* //
