/*--------------------------------*- C++ -*----------------------------------*\
  =========                 |
  \\      /  F ield         | OpenFOAM: The Open Source CFD Toolbox
   \\    /   O peration     | Website:  https://openfoam.org
    \\  /    A nd           | Version:  6
     \\/     M anipulation  |
\*---------------------------------------------------------------------------*/
FoamFile
{
    version     2.0;
    format      ascii;
    class       surfaceScalarField;
    location    "500";
    object      phi;
}
// * * * * * * * * * * * * * * * * * * * * * * * * * * * * * * * * * * * * * //

dimensions      [0 3 -1 0 0 0 0];

internalField   nonuniform List<scalar> 
1468
(
-2.78281e-07
2.81895e-07
-2.08279e-07
-5.88752e-08
-9.29397e-08
-1.12031e-07
6.80878e-08
-1.45021e-07
2.31786e-07
-1.60522e-07
4.12436e-07
-1.60151e-07
5.64923e-07
-1.50102e-07
7.16042e-07
-1.30287e-07
8.23004e-07
-1.062e-07
9.16213e-07
-7.69351e-08
9.57553e-07
-4.67376e-08
-1.34583e-08
9.81366e-07
3.64137e-07
-7.56918e-08
5.36936e-07
-2.22718e-07
7.21993e-07
-2.9154e-07
9.26799e-07
-3.37185e-07
1.12611e-06
-3.5343e-07
1.32326e-06
-3.43498e-07
1.49398e-06
-3.14525e-07
1.64801e-06
-2.70832e-07
1.76305e-06
-2.18149e-07
1.85329e-06
-1.58206e-07
1.90077e-06
-9.47723e-08
-2.83569e-08
1.92075e-06
4.08644e-07
-4.75215e-07
7.11653e-07
-5.15168e-07
1.00919e-06
-5.81474e-07
1.30361e-06
-6.19296e-07
1.57586e-06
-6.17555e-07
1.82692e-06
-5.8148e-07
2.03977e-06
-5.20361e-07
2.22153e-06
-4.41189e-07
2.35855e-06
-3.50628e-07
2.4608e-06
-2.5247e-07
2.51732e-06
-1.50149e-07
-4.51802e-08
2.53857e-06
5.44421e-07
-1.00494e-06
9.71026e-07
-9.28247e-07
1.38569e-06
-9.85149e-07
1.77798e-06
-9.97044e-07
2.12796e-06
-9.56857e-07
2.43593e-06
-8.75058e-07
2.69046e-06
-7.6554e-07
2.89986e-06
-6.37735e-07
3.05578e-06
-5.00234e-07
3.16917e-06
-3.56427e-07
3.23253e-06
-2.10428e-07
-6.27088e-08
3.25543e-06
7.36916e-07
-1.71633e-06
1.31719e-06
-1.48634e-06
1.86551e-06
-1.51436e-06
2.36205e-06
-1.47188e-06
2.78949e-06
-1.36664e-06
3.14947e-06
-1.21462e-06
3.43913e-06
-1.03997e-06
3.66862e-06
-8.49858e-07
3.83798e-06
-6.58158e-07
3.95724e-06
-4.62629e-07
4.02468e-06
-2.71555e-07
-7.77121e-08
4.04833e-06
9.92664e-07
-2.66657e-06
1.76422e-06
-2.22414e-06
2.46762e-06
-2.17679e-06
3.0679e-06
-2.03973e-06
3.56774e-06
-1.82764e-06
3.96406e-06
-1.58337e-06
4.27891e-06
-1.32067e-06
4.51348e-06
-1.06377e-06
4.69029e-06
-8.07157e-07
4.80485e-06
-5.64939e-07
4.87698e-06
-3.22689e-07
-9.2066e-08
4.89513e-06
1.33389e-06
-3.92565e-06
2.34876e-06
-3.18144e-06
3.21254e-06
-2.99185e-06
3.91575e-06
-2.68861e-06
4.45901e-06
-2.32903e-06
4.88021e-06
-1.95599e-06
5.19018e-06
-1.59813e-06
5.42591e-06
-1.25905e-06
5.58664e-06
-9.46279e-07
5.70196e-06
-6.49104e-07
5.76066e-06
-3.70701e-07
-9.65657e-08
5.78604e-06
1.79738e-06
-5.6852e-06
3.1101e-06
-4.44624e-06
4.14021e-06
-3.97848e-06
4.91158e-06
-3.41447e-06
5.47109e-06
-2.84857e-06
5.87735e-06
-2.32378e-06
6.16829e-06
-1.85532e-06
6.37702e-06
-1.43823e-06
6.52177e-06
-1.0651e-06
6.61775e-06
-7.24743e-07
6.67209e-06
-4.07807e-07
-1.03816e-07
6.69045e-06
2.47469e-06
-8.0921e-06
4.13075e-06
-6.0632e-06
5.29129e-06
-5.10335e-06
6.07023e-06
-4.16057e-06
6.5921e-06
-3.33904e-06
6.94615e-06
-2.6485e-06
7.18953e-06
-2.07218e-06
7.35765e-06
-1.58233e-06
7.47214e-06
-1.15876e-06
7.54653e-06
-7.81309e-07
7.58893e-06
-4.35778e-07
-1.07547e-07
7.6037e-06
3.5038e-06
-1.15777e-05
5.52188e-06
-8.06265e-06
6.70485e-06
-6.26501e-06
7.38857e-06
-4.82885e-06
7.80289e-06
-3.73392e-06
8.06295e-06
-2.89364e-06
8.23522e-06
-2.22717e-06
8.34892e-06
-1.68267e-06
8.42557e-06
-1.22113e-06
8.47378e-06
-8.18256e-07
8.50199e-06
-4.53091e-07
-1.10363e-07
8.51214e-06
5.26009e-06
-1.68251e-05
7.45245e-06
-1.02495e-05
8.39886e-06
-7.20563e-06
8.83699e-06
-5.25933e-06
9.06579e-06
-3.95394e-06
9.19896e-06
-3.01721e-06
9.28222e-06
-2.30043e-06
9.33539e-06
-1.72594e-06
9.36926e-06
-1.24495e-06
9.39e-06
-8.29e-07
9.40186e-06
-4.55918e-07
-1.08404e-07
9.40751e-06
8.68167e-06
-2.55132e-05
1.00935e-05
-1.16708e-05
1.0319e-05
-7.44196e-06
1.03395e-05
-5.28402e-06
1.03287e-05
-3.94799e-06
1.03189e-05
-3.00753e-06
1.03098e-05
-2.29225e-06
1.03022e-05
-1.7162e-06
1.02939e-05
-1.23435e-06
1.02868e-05
-8.17388e-07
1.02821e-05
-4.46576e-07
1.02825e-05
-1.04535e-07
9.55192e-07
1.89574e-08
9.084e-07
5.22089e-08
8.16632e-07
8.2932e-08
7.0581e-07
1.12222e-07
5.61337e-07
1.36627e-07
4.04317e-07
1.558e-07
2.32331e-07
1.66019e-07
6.39147e-08
1.65131e-07
-9.02645e-08
1.50059e-07
-2.09281e-07
1.16015e-07
-2.75695e-07
6.32317e-08
-2.76803e-07
1.89847e-06
3.82517e-08
1.84741e-06
1.04807e-07
1.75713e-06
1.68682e-07
1.63928e-06
2.28957e-07
1.48883e-06
2.82186e-07
1.31618e-06
3.25635e-07
1.12344e-06
3.54345e-07
9.21624e-07
3.63057e-07
7.21607e-07
3.4628e-07
5.3479e-07
2.99731e-07
3.64143e-07
2.30419e-07
8.64945e-08
2.51526e-06
6.03113e-08
2.45573e-06
1.65434e-07
2.35318e-06
2.68286e-07
2.21375e-06
3.66956e-07
2.03386e-06
4.58025e-07
1.81908e-06
5.37166e-07
1.57087e-06
5.97987e-07
1.29688e-06
6.32834e-07
1.0059e-06
6.33399e-07
7.07492e-07
5.94415e-07
4.07715e-07
5.28144e-07
4.94375e-07
3.23071e-06
8.51883e-08
3.16499e-06
2.33155e-07
3.05125e-06
3.80013e-07
2.89285e-06
5.24257e-07
2.68435e-06
6.62626e-07
2.42742e-06
7.90291e-07
2.12112e-06
8.99666e-07
1.76928e-06
9.80041e-07
1.37993e-06
1.0197e-06
9.65828e-07
1.00729e-06
5.43361e-07
9.50724e-07
1.03578e-06
4.02323e-06
1.11957e-07
3.95438e-06
3.06266e-07
3.83408e-06
4.98387e-07
3.66289e-06
6.94645e-07
3.43269e-06
8.87748e-07
3.14069e-06
1.07753e-06
2.78078e-06
1.2531e-06
2.35296e-06
1.40422e-06
1.85884e-06
1.50995e-06
1.3115e-06
1.54956e-06
7.33514e-07
1.52256e-06
1.76693e-06
4.87616e-06
1.4452e-07
4.80341e-06
3.76214e-07
4.68736e-06
6.19192e-07
4.50964e-06
8.6405e-07
4.27195e-06
1.12112e-06
3.95655e-06
1.38091e-06
3.55818e-06
1.64348e-06
3.06004e-06
1.88959e-06
2.457e-06
2.09808e-06
1.75905e-06
2.23958e-06
9.88757e-07
2.28444e-06
2.74528e-06
5.76112e-06
1.70763e-07
5.70138e-06
4.45959e-07
5.58684e-06
7.26773e-07
5.4226e-06
1.02637e-06
5.18664e-06
1.34237e-06
4.87257e-06
1.68432e-06
4.45201e-06
2.04497e-06
3.9042e-06
2.42041e-06
3.2073e-06
2.78583e-06
2.33982e-06
3.08716e-06
1.32588e-06
3.28192e-06
4.06991e-06
6.67365e-06
1.96301e-07
6.61967e-06
5.0154e-07
6.52449e-06
8.21974e-07
6.37705e-06
1.16511e-06
6.16772e-06
1.54347e-06
5.87267e-06
1.96404e-06
5.46691e-06
2.43925e-06
4.90669e-06
2.96878e-06
4.13317e-06
3.53804e-06
3.10583e-06
4.11277e-06
1.79824e-06
4.58516e-06
5.85805e-06
7.59162e-06
2.15048e-07
7.55163e-06
5.45088e-07
7.47738e-06
8.93962e-07
7.36244e-06
1.27547e-06
7.19214e-06
1.70456e-06
6.94768e-06
2.19982e-06
6.59252e-06
2.78369e-06
6.06899e-06
3.48143e-06
5.29424e-06
4.3166e-06
4.13007e-06
5.2637e-06
2.46824e-06
6.23806e-06
8.33098e-06
8.50612e-06
2.2624e-07
8.48155e-06
5.71127e-07
8.43404e-06
9.39183e-07
8.35814e-06
1.34734e-06
8.24218e-06
1.81368e-06
8.07059e-06
2.36612e-06
7.80933e-06
3.04037e-06
7.39883e-06
3.89169e-06
6.71139e-06
4.9946e-06
5.53141e-06
6.45297e-06
3.50931e-06
8.26508e-06
1.18394e-05
9.4075e-06
2.31099e-07
9.39976e-06
5.80401e-07
9.38145e-06
9.56638e-07
9.34796e-06
1.37739e-06
9.29482e-06
1.86375e-06
9.21214e-06
2.44618e-06
9.08025e-06
3.17074e-06
8.85317e-06
4.11857e-06
8.41996e-06
5.43829e-06
7.47082e-06
7.40028e-06
5.27367e-06
1.0468e-05
1.7126e-05
1.02888e-05
2.27563e-07
1.02985e-05
5.71215e-07
1.0309e-05
9.45544e-07
1.03181e-05
1.36634e-06
1.03273e-05
1.85446e-06
1.0337e-05
2.43686e-06
1.03502e-05
3.16128e-06
1.03642e-05
4.11035e-06
1.03476e-05
5.45785e-06
1.01268e-05
7.63559e-06
8.71597e-06
1.18941e-05
2.5842e-05
1.66686e-05
-9.17534e-06
1.33358e-05
-8.35803e-06
1.22403e-05
-6.36193e-06
1.17725e-05
-4.82727e-06
1.15313e-05
-3.71415e-06
1.13909e-05
-2.87166e-06
1.13011e-05
-2.2049e-06
1.1239e-05
-1.65428e-06
1.11932e-05
-1.18683e-06
1.11594e-05
-7.79967e-07
1.11381e-05
-4.20142e-07
-9.38047e-08
1.11328e-05
1.79151e-05
-3.95516e-06
1.50556e-05
-5.52333e-06
1.36948e-05
-5.02187e-06
1.30066e-05
-4.1587e-06
1.26259e-05
-3.34762e-06
1.23952e-05
-2.65424e-06
1.22456e-05
-2.06432e-06
1.21407e-05
-1.55725e-06
1.20636e-05
-1.11399e-06
1.20057e-05
-7.23684e-07
1.1967e-05
-3.80416e-07
-7.93971e-08
1.19542e-05
1.77601e-05
-2.01116e-06
1.59142e-05
-3.70085e-06
1.47393e-05
-3.86909e-06
1.40352e-05
-3.47315e-06
1.36039e-05
-2.93135e-06
1.33273e-05
-2.38952e-06
1.31404e-05
-1.88655e-06
1.30066e-05
-1.43018e-06
1.29054e-05
-1.01634e-06
1.28258e-05
-6.44908e-07
1.27676e-05
-3.20022e-07
-5.15493e-08
1.27441e-05
1.75969e-05
-1.17197e-06
1.64455e-05
-2.57087e-06
1.55354e-05
-2.98263e-06
1.49065e-05
-2.86465e-06
1.44824e-05
-2.52667e-06
1.41933e-05
-2.11626e-06
1.39891e-05
-1.69701e-06
1.3839e-05
-1.29107e-06
1.37209e-05
-9.07189e-07
1.36223e-05
-5.51217e-07
1.35403e-05
-2.38959e-07
1.34967e-05
-8.06739e-09
1.11457e-05
2.18193e-07
1.1173e-05
5.45741e-07
1.12103e-05
9.08282e-07
1.12583e-05
1.31886e-06
1.13221e-05
1.79174e-06
1.1414e-05
2.34802e-06
1.15573e-05
3.02212e-06
1.18027e-05
3.87138e-06
1.22775e-05
4.99394e-06
1.33848e-05
6.53726e-06
1.67449e-05
8.54206e-06
9.35149e-06
1.19751e-05
1.98952e-07
1.20205e-05
5.01561e-07
1.20825e-05
8.46989e-07
1.21626e-05
1.24088e-06
1.22693e-05
1.68813e-06
1.24218e-05
2.20072e-06
1.26551e-05
2.7954e-06
1.30406e-05
3.49427e-06
1.37346e-05
4.30911e-06
1.51075e-05
5.17586e-06
1.79889e-05
5.67229e-06
4.07745e-06
1.27763e-05
1.69876e-07
1.28414e-05
4.38531e-07
1.29257e-05
7.65109e-07
1.303e-05
1.13931e-06
1.31664e-05
1.55616e-06
1.33557e-05
2.0165e-06
1.36352e-05
2.52252e-06
1.40703e-05
3.06709e-06
1.47794e-05
3.60881e-06
1.59629e-05
4.00335e-06
1.78206e-05
3.82311e-06
2.10781e-06
1.3549e-05
1.18946e-07
1.36384e-05
3.50765e-07
1.37421e-05
6.63961e-07
1.38633e-05
1.02168e-06
1.40164e-05
1.40811e-06
1.42226e-05
1.81615e-06
1.45143e-05
2.23752e-06
1.49409e-05
2.64787e-06
1.5574e-05
2.9847e-06
1.64882e-05
3.09563e-06
1.76454e-05
2.67434e-06
1.25504e-06
2.15284e-06
-7.5679e-07
1.418e-06
-1.85562e-06
7.36375e-07
-2.32119e-06
2.06748e-07
-2.35381e-06
-1.80926e-07
-2.15538e-06
-4.61412e-07
-1.84977e-06
-6.67351e-07
-1.50295e-06
-8.23785e-07
-1.14387e-06
-9.50988e-07
-7.86783e-07
-1.06546e-06
-4.39569e-07
-1.1787e-06
-1.25873e-07
8.09989e-08
-1.26332e-06
1.70723e-06
-5.26955e-07
1.22011e-06
-1.38608e-06
7.11034e-07
-1.83071e-06
2.76488e-07
-1.93826e-06
-6.45107e-08
-1.83138e-06
-3.24675e-07
-1.60604e-06
-5.22359e-07
-1.31919e-06
-6.76703e-07
-1.00227e-06
-8.05265e-07
-6.67826e-07
-9.30079e-07
-3.21433e-07
-1.08082e-06
2.349e-08
2.58142e-07
-1.26039e-06
1.38161e-06
-3.86093e-07
1.04536e-06
-1.06444e-06
6.61065e-07
-1.46264e-06
3.07947e-07
-1.60097e-06
1.38005e-08
-1.55193e-06
-2.20494e-07
-1.38486e-06
-4.04225e-07
-1.14717e-06
-5.49713e-07
-8.6659e-07
-6.71806e-07
-5.53195e-07
-7.94811e-07
-2.02429e-07
-9.80498e-07
2.07428e-07
6.61775e-07
-1.3798e-06
1.14031e-06
-2.94675e-07
8.99297e-07
-8.3591e-07
6.04701e-07
-1.18263e-06
3.17697e-07
-1.32826e-06
6.65476e-08
-1.3151e-06
-1.40915e-07
-1.19072e-06
-3.07573e-07
-9.93267e-07
-4.39903e-07
-7.45457e-07
-5.47834e-07
-4.54912e-07
-6.49769e-07
-1.07314e-07
-8.17836e-07
3.73439e-07
-1.74289e-06
1.58231e-06
-1.1698e-06
2.73128e-08
-1.04928e-06
2.32913e-07
-9.29494e-07
5.47369e-07
-7.98805e-07
8.95395e-07
-6.39716e-07
1.25393e-06
-4.31746e-07
1.61391e-06
-1.49563e-07
1.96122e-06
2.39974e-07
2.26524e-06
7.71308e-07
2.45958e-06
1.4562e-06
2.42168e-06
2.19235e-06
1.94362e-06
8.29848e-07
-1.07256e-06
-1.59009e-07
-9.13907e-07
7.60298e-08
-7.83859e-07
4.20318e-07
-6.51638e-07
7.67125e-07
-4.94888e-07
1.10186e-06
-2.95364e-07
1.41912e-06
-3.43029e-08
1.70486e-06
3.07591e-07
1.92803e-06
7.4336e-07
2.03044e-06
1.253e-06
1.91445e-06
1.74051e-06
1.46269e-06
5.93507e-07
-9.72259e-07
-5.64654e-07
-7.79155e-07
-1.14415e-07
-6.50654e-07
2.9535e-07
-5.25013e-07
6.45746e-07
-3.77149e-07
9.58697e-07
-1.92106e-07
1.23855e-06
4.27072e-08
1.47461e-06
3.3694e-07
1.63844e-06
6.89901e-07
1.68198e-06
1.07521e-06
1.53881e-06
1.41084e-06
1.13068e-06
4.45201e-07
-8.11056e-07
-1.49394e-06
-6.34438e-07
-2.88747e-07
-5.27199e-07
1.90915e-07
-4.1581e-07
5.37704e-07
-2.81238e-07
8.27426e-07
-1.13579e-07
1.07383e-06
9.38811e-08
1.26918e-06
3.44395e-07
1.39001e-06
6.31457e-07
1.39878e-06
9.25429e-07
1.24515e-06
1.16672e-06
8.9509e-07
3.48699e-07
9.58845e-07
-2.29782e-07
7.79821e-07
-6.67791e-07
5.50176e-07
-9.65096e-07
3.15505e-07
-1.10612e-06
1.01964e-07
-1.11347e-06
-7.99716e-08
-1.01988e-06
-2.28589e-07
-8.55097e-07
-3.45781e-07
-6.37204e-07
-4.34818e-07
-3.73352e-07
-4.95524e-07
-5.09434e-08
-5.00881e-07
3.75716e-07
1.08311e-06
8.19902e-07
-1.83558e-07
6.83022e-07
-5.4016e-07
5.00783e-07
-7.93323e-07
3.07394e-07
-9.23453e-07
1.25732e-07
-9.42341e-07
-3.31157e-08
-8.7168e-07
-1.64263e-07
-7.33999e-07
-2.66557e-07
-5.44598e-07
-3.37774e-07
-3.10439e-07
-3.68642e-07
-2.66968e-08
-3.17044e-07
3.20658e-07
7.60494e-07
7.12373e-07
-1.47509e-07
6.04726e-07
-4.40758e-07
4.57634e-07
-6.54833e-07
2.96578e-07
-7.72129e-07
1.41449e-07
-7.96006e-07
2.90204e-09
-7.42284e-07
-1.12412e-07
-6.2693e-07
-2.01222e-07
-4.63856e-07
-2.58318e-07
-2.59689e-07
-2.72242e-07
-1.77167e-08
-2.11344e-07
2.5645e-07
5.48807e-07
6.27959e-07
-1.20665e-07
5.41456e-07
-3.60658e-07
4.20511e-07
-5.41702e-07
2.85066e-07
-6.43733e-07
1.51625e-07
-6.70438e-07
3.06024e-08
-6.28559e-07
-7.09871e-08
-5.33566e-07
-1.48182e-07
-3.93962e-07
-1.95071e-07
-2.20384e-07
-2.00978e-07
-1.74758e-08
-1.45822e-07
1.96949e-07
3.97985e-07
5.61554e-07
-9.7338e-08
4.90045e-07
-2.95801e-07
3.89295e-07
-4.46021e-07
2.73493e-07
-5.35932e-07
1.58134e-07
-5.60334e-07
5.14587e-08
-5.29865e-07
-3.80813e-08
-4.4949e-07
-1.06103e-07
-3.33681e-07
-1.45457e-07
-1.85751e-07
-1.48649e-07
-1.99931e-08
-1.03471e-07
1.48496e-07
2.92468e-07
5.08515e-07
-7.99976e-08
4.48638e-07
-2.40407e-07
3.62649e-07
-3.65511e-07
2.63005e-07
-4.4076e-07
1.61536e-07
-4.63893e-07
6.75276e-08
-4.40929e-07
-1.2751e-08
-3.75078e-07
-7.26321e-08
-2.79845e-07
-1.07437e-07
-1.57135e-07
-1.09986e-07
-2.29137e-08
-7.47809e-08
1.08922e-07
2.13044e-07
4.66597e-07
-6.34976e-08
4.14939e-07
-1.93778e-07
3.40586e-07
-2.95348e-07
2.53293e-07
-3.58374e-07
1.63007e-07
-3.78748e-07
7.93955e-08
-3.61439e-07
6.54652e-09
-3.08368e-07
-4.66805e-08
-2.3075e-07
-7.85093e-08
-1.30892e-07
-8.14871e-08
-2.35919e-08
-5.50413e-08
7.87978e-08
1.56197e-07
4.33029e-07
-5.12528e-08
3.87785e-07
-1.52734e-07
3.22138e-07
-2.32765e-07
2.44576e-07
-2.85236e-07
1.6314e-07
-2.98585e-07
8.7888e-08
-2.91454e-07
2.1074e-08
-2.43555e-07
-2.6931e-08
-1.89343e-07
-5.67426e-08
-1.04376e-07
-6.05902e-08
-2.57471e-08
-4.10251e-08
5.59387e-08
1.10787e-07
4.06646e-07
-3.84196e-08
3.66095e-07
-1.16448e-07
3.0662e-07
-1.7915e-07
2.37522e-07
-2.15717e-07
1.61296e-07
-2.33865e-07
9.47568e-08
-2.18886e-07
3.03461e-08
-1.94064e-07
-1.12536e-08
-1.40529e-07
-4.16266e-08
-8.64993e-08
-4.48552e-08
-1.83583e-08
-3.15024e-08
3.68536e-08
8.02532e-08
3.85752e-07
-2.79745e-08
3.48559e-07
-8.47331e-08
2.94628e-07
-1.28602e-07
2.29951e-07
-1.56718e-07
1.60768e-07
-1.67663e-07
9.71538e-08
-1.59292e-07
3.88156e-08
-1.39329e-07
-1.91168e-09
-1.02969e-07
-2.93246e-08
-6.25827e-08
-3.46763e-08
-1.53335e-08
-2.42299e-08
2.43913e-08
5.39033e-08
3.69406e-07
-1.95545e-08
3.34977e-07
-5.66056e-08
2.84583e-07
-8.41491e-08
2.23874e-07
-1.01746e-07
1.59086e-07
-1.08775e-07
9.85246e-08
-1.02456e-07
4.39102e-08
-9.12946e-08
4.5939e-09
-6.68741e-08
-2.12042e-08
-4.27486e-08
-2.76607e-08
-1.17979e-08
-1.94374e-08
1.24427e-08
3.12447e-08
6.31045e-07
5.73406e-07
4.88269e-07
3.8543e-07
2.76085e-07
1.7239e-07
8.06037e-08
1.26184e-08
-3.06294e-08
-4.30865e-08
-3.12447e-08
-4.93396e-07
-9.97832e-07
-4.80808e-07
-2.98549e-07
-4.14817e-07
1.27956e-07
-3.22392e-07
4.49105e-07
-2.03173e-07
7.11627e-07
-5.37801e-08
9.27715e-07
1.27731e-07
1.09019e-06
3.40396e-07
1.18028e-06
5.7406e-07
1.16805e-06
8.04468e-07
1.02348e-06
9.83228e-07
7.18766e-07
2.77641e-07
-3.0948e-07
-6.85537e-07
-3.54252e-07
-2.51635e-07
-3.18504e-07
9.47418e-08
-2.43984e-07
3.76798e-07
-1.39834e-07
6.09614e-07
-8.06492e-09
7.96782e-07
1.50038e-07
9.32245e-07
3.30466e-07
9.99441e-07
5.2323e-07
9.77183e-07
7.05158e-07
8.40424e-07
8.42958e-07
5.86386e-07
2.27353e-07
-2.03537e-07
-4.79372e-07
-2.58383e-07
-1.94311e-07
-2.39855e-07
7.87023e-08
-1.79432e-07
3.19304e-07
-8.9031e-08
5.21319e-07
2.68971e-08
6.82692e-07
1.64392e-07
7.95422e-07
3.18337e-07
8.46641e-07
4.77942e-07
8.18743e-07
6.26207e-07
6.9998e-07
7.34357e-07
4.80176e-07
1.85721e-07
-1.38377e-07
-3.38852e-07
-1.87666e-07
-1.43127e-07
-1.77296e-07
7.01658e-08
-1.27334e-07
2.70804e-07
-4.84698e-08
4.43221e-07
5.34997e-08
5.8022e-07
1.7352e-07
6.7376e-07
3.05434e-07
7.12701e-07
4.40071e-07
6.84334e-07
5.61141e-07
5.77761e-07
6.49225e-07
3.97419e-07
1.54932e-07
-9.61936e-08
-2.40256e-07
-1.35851e-07
-1.01576e-07
-1.28541e-07
6.48626e-08
-8.59224e-08
2.30096e-07
-1.65904e-08
3.7466e-07
7.35826e-08
4.9066e-07
1.7894e-07
5.67192e-07
2.9309e-07
5.98375e-07
4.07448e-07
5.69946e-07
5.09506e-07
4.82812e-07
5.81844e-07
3.27613e-07
1.2755e-07
-6.78511e-08
-1.70901e-07
-9.78726e-08
-7.0097e-08
-9.09602e-08
5.91779e-08
-5.35578e-08
1.93435e-07
8.36351e-09
3.12354e-07
8.84063e-08
4.09082e-07
1.8209e-07
4.70288e-07
2.81366e-07
4.96387e-07
3.8104e-07
4.68998e-07
4.66664e-07
3.97892e-07
5.28072e-07
2.71208e-07
1.0625e-07
-4.82422e-08
-1.20604e-07
-7.01198e-08
-4.69509e-08
-6.23444e-08
5.33886e-08
-2.87332e-08
1.60259e-07
2.75519e-08
2.57324e-07
9.89414e-08
3.35442e-07
1.83791e-07
3.85943e-07
2.70448e-07
4.05164e-07
3.5945e-07
3.83763e-07
4.32301e-07
3.26326e-07
4.84865e-07
2.21794e-07
8.66878e-08
-3.45687e-08
-8.49537e-08
-4.98286e-08
-3.02882e-08
-4.09698e-08
4.49706e-08
-9.85578e-09
1.30311e-07
4.17699e-08
2.0319e-07
1.06573e-07
2.70305e-07
1.83886e-07
3.0178e-07
2.61207e-07
3.27512e-07
3.41695e-07
2.97629e-07
4.04254e-07
2.6741e-07
4.50036e-07
1.77569e-07
6.90784e-08
-2.48645e-08
-5.788e-08
-3.54461e-08
-1.97133e-08
-2.49574e-08
3.83339e-08
3.33835e-09
9.86325e-08
5.2949e-08
1.609e-07
1.10154e-07
2.01872e-07
1.84965e-07
2.40698e-07
2.50884e-07
2.41093e-07
3.29775e-07
2.41859e-07
3.80498e-07
1.96147e-07
4.22077e-07
1.38858e-07
5.38964e-08
-1.83724e-08
-3.81996e-08
-2.49667e-08
-1.12482e-08
-1.42965e-08
2.85729e-08
1.37954e-08
7.27881e-08
5.88673e-08
1.14794e-07
1.14625e-07
1.47067e-07
1.81524e-07
1.70626e-07
2.46256e-07
1.75119e-07
3.15798e-07
1.71454e-07
3.63603e-07
1.39117e-07
3.99719e-07
9.65334e-08
3.90064e-08
-1.39507e-08
-2.20641e-08
-1.81182e-08
-5.17457e-09
-6.94477e-09
1.95707e-08
2.0265e-08
4.66551e-08
6.29301e-08
7.27354e-08
1.16243e-07
9.1516e-08
1.7883e-07
1.06538e-07
2.41038e-07
1.07177e-07
3.04679e-07
1.07169e-07
3.49944e-07
8.02284e-08
3.82987e-07
5.56993e-08
2.41856e-08
-2.17175e-08
-2.65017e-08
-6.74313e-09
4.00732e-08
1.12371e-07
2.03752e-07
3.09095e-07
4.16448e-07
5.21177e-07
5.9985e-07
6.55583e-07
)
;

boundaryField
{
    rotor
    {
        type            calculated;
        value           uniform 0;
    }
    stator
    {
        type            calculated;
        value           uniform 0;
    }
    front
    {
        type            empty;
        value           nonuniform 0();
    }
    back
    {
        type            empty;
        value           nonuniform 0();
    }
    procBoundary2to0
    {
        type            processor;
        value           nonuniform List<scalar> 
20
(
-3.30205e-05
-2.31466e-05
-1.97196e-05
-1.84502e-05
-2.57922e-06
-1.94785e-06
-1.53108e-06
-1.24096e-06
-1.03017e-06
-8.73252e-07
-7.53369e-07
-6.60844e-07
-5.88088e-07
-5.31049e-07
-4.85492e-07
-4.49674e-07
-4.21118e-07
-3.98935e-07
-3.81753e-07
-6.52031e-07
)
;
    }
    procBoundary2to3
    {
        type            processor;
        value           nonuniform List<scalar> 
20
(
3.32447e-05
2.32657e-05
1.97936e-05
1.85019e-05
2.61892e-06
1.98034e-06
1.5591e-06
1.26626e-06
1.05378e-06
8.95739e-07
7.75027e-07
6.81899e-07
6.08668e-07
5.50906e-07
5.04813e-07
4.68099e-07
4.38925e-07
4.1579e-07
3.97819e-07
6.79382e-07
)
;
    }
}


// ************************************************************************* //
