/*--------------------------------*- C++ -*----------------------------------*\
  =========                 |
  \\      /  F ield         | OpenFOAM: The Open Source CFD Toolbox
   \\    /   O peration     | Website:  https://openfoam.org
    \\  /    A nd           | Version:  6
     \\/     M anipulation  |
\*---------------------------------------------------------------------------*/
FoamFile
{
    version     2.0;
    format      ascii;
    class       volVectorField;
    location    "500";
    object      U;
}
// * * * * * * * * * * * * * * * * * * * * * * * * * * * * * * * * * * * * * //

dimensions      [0 1 -1 0 0 0 0];

internalField   nonuniform List<vector> 
768
(
(-0.014955 -0.0288998 -1.42317e-20)
(-0.00637276 -0.0618043 -5.73564e-20)
(-0.00956024 -0.0647561 5.73564e-20)
(-0.0128722 -0.0619494 -1.65105e-19)
(-0.016143 -0.0590364 0)
(-0.019236 -0.0558912 2.99361e-19)
(-0.0221234 -0.05264 0)
(-0.02484 -0.0493747 4.24222e-19)
(-0.0274163 -0.0461924 -1.55783e-18)
(-0.0299264 -0.043146 1.50332e-18)
(-0.0324205 -0.0402677 3.69931e-18)
(-0.0349705 -0.0375385 -1.19419e-18)
(-0.00319686 -0.0302583 -6.88831e-21)
(-0.00259575 -0.0650294 -5.67385e-20)
(-0.00656858 -0.064709 5.67385e-20)
(-0.0096637 -0.0614929 1.55194e-19)
(-0.0127012 -0.0583791 -5.06585e-19)
(-0.0157452 -0.0551391 -6.40042e-20)
(-0.0187374 -0.0518252 -6.96564e-19)
(-0.0216872 -0.0484911 -2.11397e-18)
(-0.0245669 -0.0452193 2.73985e-18)
(-0.0274277 -0.0420314 -9.08454e-19)
(-0.030268 -0.038955 4.40279e-21)
(-0.0331507 -0.0359629 1.03483e-19)
(0.00343535 -0.0342089 1.31832e-20)
(0.00069305 -0.0720975 0)
(-0.00357491 -0.0701939 0)
(-0.00679864 -0.0659617 -1.81725e-19)
(-0.010017 -0.0620469 0)
(-0.0133203 -0.0581588 -3.25393e-19)
(-0.0166559 -0.0543017 7.24997e-19)
(-0.0199919 -0.0505062 1.8148e-18)
(-0.0232967 -0.0468099 -7.51117e-19)
(-0.0265857 -0.0432206 -2.0246e-18)
(-0.0298637 -0.0397398 -3.63569e-18)
(-0.033165 -0.0363444 3.74229e-18)
(0.0103043 -0.0372036 1.56143e-20)
(0.00528494 -0.0782422 -2.53338e-20)
(0.000640757 -0.0747038 1.30209e-19)
(-0.00292268 -0.0694007 1.87044e-19)
(-0.00650856 -0.0645946 0)
(-0.0102047 -0.0599872 -1.47372e-18)
(-0.0139459 -0.0555548 1.44145e-18)
(-0.0176851 -0.0512941 0)
(-0.0213841 -0.0472085 2.10612e-18)
(-0.0250478 -0.0432751 -3.23461e-18)
(-0.0286796 -0.0394704 2.54231e-18)
(-0.0323131 -0.0357581 1.04915e-19)
(0.0183144 -0.0398362 -1.54818e-20)
(0.011072 -0.0836846 6.24795e-20)
(0.00600759 -0.0782263 2.32082e-20)
(0.00192073 -0.0717406 0)
(-0.00221286 -0.0659964 -6.44125e-19)
(-0.00646304 -0.0606686 1.33464e-18)
(-0.0107032 -0.0557041 0)
(-0.0149075 -0.0510402 -9.57316e-19)
(-0.0189997 -0.046649 -1.16361e-18)
(-0.0230231 -0.04245 2.20308e-18)
(-0.026952 -0.0384179 0)
(-0.0308617 -0.0344615 -2.70006e-18)
(0.0279768 -0.0421253 2.50944e-20)
(0.0182265 -0.0883128 4.27459e-20)
(0.012478 -0.0805639 -1.57953e-19)
(0.00760391 -0.0727712 -1.092e-18)
(0.0026574 -0.0660771 -1.32248e-19)
(-0.00229893 -0.0601131 1.48198e-18)
(-0.00716725 -0.0547206 0)
(-0.0118574 -0.0497944 2.96973e-18)
(-0.0163707 -0.0452087 -2.27002e-18)
(-0.0206964 -0.0408846 2.27002e-18)
(-0.0248914 -0.0367099 -8.30404e-20)
(-0.028979 -0.0326315 -1.84864e-19)
(0.0397718 -0.043948 -4.55476e-20)
(0.0269932 -0.0917973 -6.48395e-20)
(0.0200871 -0.0813778 0)
(0.0139784 -0.0722087 1.15752e-18)
(0.00790521 -0.0646745 -2.10609e-18)
(0.00203914 -0.0582486 2.23114e-20)
(-0.00354532 -0.0526374 -3.62159e-18)
(-0.00876273 -0.0476277 1.2744e-19)
(-0.0136686 -0.0430264 -2.14051e-18)
(-0.0182641 -0.0387055 -2.43351e-18)
(-0.0226476 -0.0345255 2.69787e-18)
(-0.0268447 -0.0304177 -2.67829e-18)
(0.0548382 -0.0451023 1.26449e-20)
(0.0378735 -0.0937389 -5.88519e-20)
(0.0289697 -0.0802103 0)
(0.0209453 -0.0697476 6.71927e-19)
(0.0133809 -0.0616573 7.47558e-19)
(0.00637821 -0.0550921 8.68778e-19)
(2.67086e-05 -0.0495589 -1.34564e-19)
(-0.00575453 -0.044698 -1.78534e-19)
(-0.0109987 -0.0402781 -2.48202e-18)
(-0.0158411 -0.0360966 -1.97399e-19)
(-0.0203246 -0.0320469 -7.06033e-20)
(-0.0245815 -0.0279868 0)
(0.0745925 -0.0450307 6.34705e-20)
(0.0513699 -0.093186 0)
(0.0390034 -0.076294 0)
(0.0282289 -0.0649824 -6.7001e-19)
(0.0187613 -0.0569088 7.86985e-19)
(0.0105115 -0.0507017 -1.88896e-18)
(0.00335164 -0.0456134 0)
(-0.00292985 -0.0411768 2.25306e-18)
(-0.0084897 -0.0371141 5.2818e-20)
(-0.0134888 -0.0332296 2.46347e-18)
(-0.0180413 -0.0293937 -2.63517e-18)
(-0.022261 -0.0254931 5.54436e-18)
(0.100819 -0.0429286 2.90859e-19)
(0.0675608 -0.0887177 -1.14724e-19)
(0.0495075 -0.0686058 -7.37737e-19)
(0.0351159 -0.0575258 -1.66923e-18)
(0.0235303 -0.0504121 0)
(0.0140785 -0.0452159 1.87723e-18)
(0.00621697 -0.0409833 -4.27939e-18)
(-0.000458731 -0.0372286 2.19303e-18)
(-0.00623604 -0.0336953 2.47684e-18)
(-0.0113209 -0.0302198 0)
(-0.0158667 -0.0266931 -2.65333e-18)
(-0.0199928 -0.0230218 -5.50991e-18)
(0.136463 -0.036851 -3.32426e-19)
(0.0850634 -0.0770229 1.5299e-19)
(0.0588352 -0.0557331 7.31124e-19)
(0.0404833 -0.0471877 7.46644e-19)
(0.0270429 -0.0423934 -6.92704e-20)
(0.0167138 -0.0389231 -3.17592e-18)
(0.00841056 -0.0359143 4.18841e-18)
(0.00152882 -0.0330463 9.15715e-18)
(-0.00433447 -0.0301607 -7.05678e-18)
(-0.00941179 -0.0271783 -5.03609e-18)
(-0.0138787 -0.0240279 5.22488e-18)
(-0.0178501 -0.0206492 0)
(0.185919 -0.0222623 8.22445e-19)
(0.0978384 -0.0506217 2.94935e-19)
(0.0638556 -0.0363764 4.35486e-19)
(0.0429526 -0.0344413 1.97373e-18)
(0.0287277 -0.0334809 0)
(0.0181608 -0.0322861 2.04642e-18)
(0.00982089 -0.0307246 -4.46261e-18)
(0.00296545 -0.0288359 -2.19106e-18)
(-0.00282746 -0.0266549 -2.35002e-18)
(-0.00780629 -0.0242037 4.97963e-18)
(-0.0121251 -0.0214738 2.568e-18)
(-0.0158908 -0.0184341 8.07964e-18)
(-0.0375965 -0.0349293 -7.10534e-19)
(-0.0403594 -0.0324051 7.65374e-19)
(-0.0432584 -0.0299157 -2.59111e-18)
(-0.0463168 -0.0274049 7.95176e-18)
(-0.0494836 -0.0248115 -3.65276e-18)
(-0.0527318 -0.0220866 0)
(-0.0559503 -0.0191848 -2.20343e-18)
(-0.0590143 -0.0160807 1.63608e-18)
(-0.0620074 -0.0127233 0)
(-0.0648246 -0.00944564 -1.03952e-21)
(-0.0620037 -0.0062048 0)
(-0.0291814 -0.0147912 -1.51648e-19)
(-0.0360727 -0.0330537 -5.33827e-18)
(-0.0390863 -0.0301855 2.76834e-18)
(-0.0421796 -0.0273425 3.19689e-18)
(-0.045378 -0.024478 -1.55101e-18)
(-0.0486425 -0.0215801 0)
(-0.051956 -0.0186237 0)
(-0.0552423 -0.015621 2.0594e-18)
(-0.058414 -0.0125904 -2.0594e-18)
(-0.0615363 -0.00955158 0)
(-0.0648103 -0.00644908 6.29228e-19)
(-0.0652467 -0.00247183 4.69269e-20)
(-0.0305446 -0.00303855 -1.00037e-18)
(-0.0365019 -0.033015 1.38515e-18)
(-0.0399123 -0.0297208 -2.98166e-18)
(-0.0434043 -0.026437 0)
(-0.0470013 -0.0231383 -3.41038e-18)
(-0.0506934 -0.0198155 -3.75346e-18)
(-0.0544756 -0.0164698 7.74607e-18)
(-0.0583083 -0.0131286 -6.03585e-18)
(-0.0621313 -0.00983841 0)
(-0.0660337 -0.00663906 0)
(-0.0703224 -0.00343041 0)
(-0.0723324 0.000854408 -6.54507e-19)
(-0.0345139 0.0036948 2.56669e-19)
(-0.0359697 -0.0321031 -1.42568e-18)
(-0.0396893 -0.0284696 8.86486e-21)
(-0.0434991 -0.0248248 0)
(-0.0474361 -0.0211491 1.98062e-20)
(-0.0515188 -0.0174312 0)
(-0.0557696 -0.0136826 0)
(-0.0601827 -0.00993537 2.10303e-18)
(-0.0647304 -0.0062518 -2.28835e-18)
(-0.0695081 -0.00268298 2.28835e-18)
(-0.0748591 0.000868301 0)
(-0.0784909 0.0055408 -6.61539e-19)
(-0.0375195 0.0107015 -1.27354e-18)
(-0.0347502 -0.0305662 5.89064e-18)
(-0.0387032 -0.0266452 -1.44413e-18)
(-0.0427347 -0.0226956 3.39803e-18)
(-0.0469307 -0.0186559 1.97226e-18)
(-0.0513198 -0.0145389 -5.45144e-18)
(-0.0559738 -0.0103279 0)
(-0.0609241 -0.00607278 -2.0706e-18)
(-0.0661889 -0.00182838 0)
(-0.0718814 0.00230673 0)
(-0.0784027 0.00637196 1.24458e-18)
(-0.0839586 0.0114721 -1.4165e-20)
(-0.0401758 0.0189101 1.48727e-18)
(-0.0330348 -0.0285557 -3.11504e-18)
(-0.0370977 -0.0244402 -8.14651e-20)
(-0.0412596 -0.0202181 0)
(-0.0455755 -0.0158577 0)
(-0.0501544 -0.0113211 -5.60807e-18)
(-0.0550708 -0.00660354 3.8076e-18)
(-0.0604394 -0.00171473 4.14568e-18)
(-0.0663377 0.00326127 2.26947e-18)
(-0.0729697 0.00819279 -4.57709e-18)
(-0.0807889 0.013077 -1.26003e-18)
(-0.088604 0.018848 0)
(-0.0424747 0.0288547 1.45557e-18)
(-0.0309604 -0.0262613 -5.95322e-18)
(-0.0350404 -0.0220214 3.04514e-18)
(-0.0391906 -0.017591 3.37433e-18)
(-0.0434979 -0.0129459 6.39075e-20)
(-0.0480809 -0.008002 6.94405e-20)
(-0.0530784 -0.00273357 -3.81242e-18)
(-0.0586578 0.00288355 -6.08289e-18)
(-0.0650315 0.00879035 -2.12494e-18)
(-0.0724669 0.0148863 2.32208e-18)
(-0.0816365 0.0210213 0)
(-0.0921621 0.0279669 1.95818e-18)
(-0.0443372 0.041175 -9.31938e-19)
(-0.0286524 -0.0238571 5.9444e-18)
(-0.0326637 -0.0195401 -2.98604e-18)
(-0.0366753 -0.0149857 -3.23054e-18)
(-0.0408258 -0.0100866 -6.94432e-18)
(-0.0452254 -0.00477443 7.12597e-18)
(-0.0500623 0.00106209 -5.44906e-20)
(-0.0555642 0.00748679 1.18125e-17)
(-0.0620459 0.0145542 2.1276e-18)
(-0.0700505 0.0221822 2.17863e-18)
(-0.0804986 0.0302611 0)
(-0.0940644 0.0392542 -1.2859e-18)
(-0.0454389 0.0567226 -9.04793e-19)
(-0.0262402 -0.0214397 0)
(-0.0300726 -0.0171403 3.06823e-18)
(-0.0338582 -0.0125051 3.22133e-18)
(-0.0376986 -0.00743579 -3.42908e-18)
(-0.0417333 -0.00179438 -4.28411e-20)
(-0.0461322 0.00455738 -3.6257e-18)
(-0.0511792 0.0118174 -3.90392e-18)
(-0.0573147 0.0201508 0)
(-0.0652611 0.0297255 -2.17242e-18)
(-0.0765368 0.0405894 -1.16948e-18)
(-0.0935536 0.0530701 2.97302e-18)
(-0.045421 0.0768818 -8.09359e-19)
(-0.0238037 -0.0191217 0)
(-0.0273936 -0.0149006 0)
(-0.0308539 -0.0102687 0)
(-0.0342776 -0.00509861 -9.85451e-18)
(-0.0377692 0.000758453 6.69277e-18)
(-0.04148 0.00752577 7.08957e-18)
(-0.0456561 0.0154908 0)
(-0.0507538 0.0250599 -3.80264e-18)
(-0.0577489 0.03677 0)
(-0.0687863 0.0512974 -2.08052e-18)
(-0.0889763 0.0696074 -5.79686e-19)
(-0.0432402 0.103449 -7.48564e-19)
(-0.0214327 -0.0169641 0)
(-0.0247191 -0.0128908 0)
(-0.0277891 -0.00833322 6.13496e-18)
(-0.0307122 -0.00316644 9.70854e-18)
(-0.0335417 0.00277603 -3.52352e-20)
(-0.0363562 0.00976067 3.39943e-18)
(-0.0392914 0.0181655 -1.81545e-18)
(-0.0426661 0.0286244 5.584e-18)
(-0.0473004 0.0421981 3.75137e-18)
(-0.0558038 0.0608343 2.06187e-18)
(-0.0771584 0.0872748 -1.01023e-18)
(-0.0370503 0.139343 -6.65467e-19)
(-0.0191947 -0.0150197 0)
(-0.022132 -0.011149 0)
(-0.024774 -0.00673408 -6.06619e-18)
(-0.0271543 -0.00167186 3.02792e-18)
(-0.0292716 0.00420618 -3.33231e-18)
(-0.0310942 0.0111545 -3.36132e-18)
(-0.0325731 0.0195976 3.37442e-18)
(-0.0336515 0.0302826 0)
(-0.0344794 0.0446703 -3.70932e-18)
(-0.0362813 0.0658379 -1.80278e-18)
(-0.0505265 0.100083 1.48697e-18)
(-0.0222634 0.189147 -1.06607e-18)
(0.128768 0.138913 -4.6276e-19)
(0.0893848 0.014767 1.43729e-19)
(0.0603926 -0.0119918 0)
(0.0414945 -0.0212045 -8.84634e-19)
(0.0283265 -0.0247512 2.08894e-18)
(0.018378 -0.0258811 -3.25619e-18)
(0.0104429 -0.0257322 -7.04207e-20)
(0.00386049 -0.0247864 4.6408e-18)
(-0.00171964 -0.0232915 -2.36286e-18)
(-0.00651527 -0.0213691 0)
(-0.0106369 -0.0190776 -1.03399e-17)
(-0.0141548 -0.0164126 5.63038e-21)
(0.0569566 0.0817049 5.99632e-19)
(0.0616764 0.0288124 -1.99205e-19)
(0.0493141 0.00157472 2.19401e-18)
(0.0366822 -0.0112862 -4.23814e-18)
(0.0261815 -0.0174158 2.19585e-18)
(0.0175726 -0.0202176 -1.42448e-19)
(0.0103921 -0.0211904 0)
(0.0042859 -0.0210442 7.06489e-18)
(-0.000975054 -0.0201547 -2.36648e-18)
(-0.00552756 -0.0187248 0)
(-0.00942667 -0.0168682 5.10695e-18)
(-0.0126735 -0.0146115 -5.27889e-18)
(0.0256668 0.0536176 -3.04939e-19)
(0.0402416 0.027743 5.47579e-20)
(0.0378277 0.00740261 -2.15949e-18)
(0.0307386 -0.00490187 2.14283e-18)
(0.0231266 -0.0118236 -2.1613e-18)
(0.0161091 -0.0155159 6.66473e-18)
(0.00986113 -0.017233 6.85205e-18)
(0.00434572 -0.0176876 -2.26275e-18)
(-0.000530259 -0.0172867 2.44539e-18)
(-0.00481471 -0.0162879 0)
(-0.00849886 -0.0148498 -5.06343e-18)
(-0.0114793 -0.0130345 0)
(0.0135328 0.0378346 -1.25227e-18)
(0.0267848 0.0237127 -2.34451e-18)
(0.0285428 0.00934007 2.30088e-18)
(0.0250796 -0.00108649 -1.11631e-18)
(0.0198582 -0.00777796 2.23617e-18)
(0.0143355 -0.0117596 -7.82862e-18)
(0.00904397 -0.0138845 -4.55801e-18)
(0.00415093 -0.0147365 4.65226e-18)
(-0.000313231 -0.0146998 -7.07638e-18)
(-0.00433766 -0.0140512 0)
(-0.00785599 -0.0129978 4.97888e-18)
(-0.0106241 -0.0116762 -1.02355e-17)
(-0.0171357 -0.0133163 8.34675e-18)
(-0.0196896 -0.00969114 -2.81462e-18)
(-0.0218878 -0.00547486 0)
(-0.0237298 -0.000600399 -6.11671e-18)
(-0.0251549 0.00506329 0)
(-0.0260228 0.0117256 0)
(-0.0260846 0.0197569 -3.33041e-18)
(-0.0248396 0.0297961 0)
(-0.0211374 0.0430963 0)
(-0.0117464 0.0621763 1.00721e-19)
(0.0153082 0.0914305 1.65284e-18)
(0.140607 0.13094 8.95785e-19)
(-0.0152873 -0.011881 -5.45174e-18)
(-0.0174298 -0.00852587 0)
(-0.0191862 -0.00453696 0)
(-0.0205307 9.26635e-05 -2.99448e-18)
(-0.0213433 0.00542538 2.99448e-18)
(-0.0214081 0.0116037 0)
(-0.0203431 0.0188562 -4.65223e-18)
(-0.0174283 0.0275344 -1.58914e-18)
(-0.0111553 0.0381127 0)
(0.00188969 0.0508358 -7.07323e-19)
(0.0294145 0.0631968 -2.0454e-18)
(0.0828129 0.0582687 -3.78697e-19)
(-0.0136585 -0.0107365 5.34669e-18)
(-0.0153564 -0.00765145 -2.78238e-18)
(-0.0166911 -0.00388248 -5.68387e-18)
(-0.0176019 0.000473513 2.84946e-18)
(-0.0179201 0.00540936 -5.84814e-18)
(-0.017384 0.0109855 0)
(-0.0155744 0.0172822 1.21611e-17)
(-0.0117771 0.0243451 0)
(-0.00472612 0.0319813 1.52915e-18)
(0.00773743 0.0390897 8.28224e-19)
(0.0282844 0.0414145 1.10749e-18)
(0.0543939 0.0265865 -1.44727e-20)
(-0.0122493 -0.00993615 -5.2574e-18)
(-0.0134529 -0.0070673 0)
(-0.0143992 -0.00346849 5.523e-18)
(-0.0149575 0.000618462 -8.42893e-18)
(-0.0149107 0.00513396 1.42702e-17)
(-0.013977 0.0100704 -5.76127e-18)
(-0.0117655 0.0153946 -1.17323e-17)
(-0.00768898 0.0209345 0)
(-0.000887343 0.0261527 0)
(0.00966385 0.0295798 0)
(0.0241704 0.0277179 -1.39602e-18)
(0.0384122 0.0142546 -1.00352e-18)
(0.00808579 0.0281319 1.2304e-18)
(0.0184979 0.0196967 1.1685e-18)
(0.0216143 0.00952676 -2.26069e-18)
(0.0202503 0.00108633 0)
(0.0167763 -0.00492723 1.12401e-18)
(0.0125098 -0.0088247 3.41645e-18)
(0.00809736 -0.0111013 0)
(0.0038084 -0.0121763 4.64177e-18)
(-0.000247698 -0.0123806 0)
(-0.0040403 -0.0119832 1.20449e-17)
(-0.00749368 -0.011262 -4.91161e-18)
(-0.0102191 -0.0104959 1.25411e-17)
(0.00529909 0.0217599 -2.99882e-19)
(0.0132606 0.0163355 1.48382e-18)
(0.0165561 0.00900536 -2.30977e-18)
(0.0163257 0.00227492 -3.42391e-18)
(0.0140504 -0.0029336 -2.69364e-21)
(0.0107808 -0.00655163 -5.58097e-18)
(0.00712711 -0.00880652 -6.82622e-18)
(0.00340084 -0.00997207 -6.87862e-18)
(-0.000264435 -0.0103021 -9.32025e-18)
(-0.00385077 -0.0100447 -9.4438e-18)
(-0.00738219 -0.00954356 0)
(-0.0105071 -0.00939754 0)
(0.00370886 0.0173568 1.20475e-18)
(0.00982092 0.0136589 -1.73939e-18)
(0.0128615 0.00824939 2.84436e-18)
(0.0132026 0.00288913 -6.00848e-20)
(0.0117279 -0.00154111 4.49283e-18)
(0.00922222 -0.00479554 2.25006e-18)
(0.00620666 -0.00692561 6.70403e-18)
(0.00299027 -0.00808558 1.58783e-17)
(-0.000294056 -0.00844414 6.86878e-18)
(-0.0036637 -0.0081959 -9.31412e-18)
(-0.00739305 -0.00770664 0)
(-0.0120424 -0.00811627 0)
(0.00272166 0.0142001 -2.3667e-18)
(0.00747169 0.0115557 5.71583e-19)
(0.0101321 0.00746944 -5.71583e-19)
(0.0107305 0.00317843 5.55184e-18)
(0.00978494 -0.000560047 -5.52034e-18)
(0.0078547 -0.00343286 -2.17623e-18)
(0.00537064 -0.00538641 -1.13978e-20)
(0.00261161 -0.0064791 2.27897e-18)
(-0.000286373 -0.00679776 -9.04729e-18)
(-0.0033563 -0.00643122 9.13828e-18)
(-0.00710093 -0.00555892 -9.2656e-18)
(-0.0158448 -0.00620184 0)
(-0.0110171 -0.00958468 -1.03129e-17)
(-0.011665 -0.00676556 -2.66462e-18)
(-0.0122802 -0.00323786 2.66462e-18)
(-0.012585 0.000608801 -2.72077e-18)
(-0.0122989 0.00470722 -2.82839e-18)
(-0.0111439 0.00902431 6.80778e-20)
(-0.00878924 0.0134547 7.1319e-18)
(-0.00480782 0.0177173 -1.4187e-18)
(0.00129239 0.0211677 0)
(0.00982935 0.022476 0)
(0.02009 0.0192585 1.37164e-18)
(0.0285875 0.00868644 1.30343e-18)
(-0.00987088 -0.00992929 2.02577e-17)
(-0.00990108 -0.00671558 0)
(-0.0102944 -0.00311542 0)
(-0.0104603 0.000517868 5.36136e-18)
(-0.0100499 0.00421477 -2.67334e-18)
(-0.0088096 0.00795909 2.77363e-18)
(-0.00648424 0.0116152 0)
(-0.00279759 0.0148688 -4.09081e-18)
(0.00248358 0.0171063 -1.36971e-18)
(0.0092832 0.017275 2.67696e-18)
(0.0166723 0.0138896 -1.63186e-18)
(0.0221377 0.0058146 -3.14144e-19)
(-0.00854362 -0.0115139 -9.94341e-18)
(-0.00801801 -0.00678775 7.59392e-18)
(-0.0084028 -0.00299598 2.55646e-18)
(-0.00856116 0.0004149 2.62268e-18)
(-0.00812453 0.00372188 2.66865e-18)
(-0.00689603 0.00694739 0)
(-0.00470403 0.0099546 1.33194e-18)
(-0.00139303 0.012436 2.70028e-18)
(0.00309061 0.0138658 1.32711e-18)
(0.00850644 0.0134653 -2.62735e-18)
(0.0139629 0.0103485 1.28437e-18)
(0.0176857 0.00415554 -6.20149e-19)
(-0.00658316 -0.0153781 9.84038e-18)
(-0.00583166 -0.00655955 -9.95876e-18)
(-0.00659853 -0.00275249 -2.53626e-18)
(-0.00687873 0.000351822 -2.39654e-20)
(-0.00648613 0.00326635 -7.69781e-18)
(-0.00533006 0.00602622 -2.58798e-18)
(-0.00332384 0.00849585 7.75042e-18)
(-0.000406466 0.010395 0)
(0.00337575 0.011296 5.11592e-18)
(0.00770691 0.010641 0)
(0.0118283 0.00791923 -2.48265e-18)
(0.0144977 0.00310946 1.21532e-18)
(0.00206627 0.0118677 5.80051e-19)
(0.00581097 0.0099056 -5.64431e-19)
(0.00808466 0.00674972 5.64431e-19)
(0.00877423 0.00328524 4.43556e-18)
(0.00817521 0.000136471 4.40359e-18)
(0.00667912 -0.00237291 -4.35949e-18)
(0.0046341 -0.00413134 -2.1986e-18)
(0.00228484 -0.00512721 -6.59654e-18)
(-0.000220128 -0.00537602 1.77727e-17)
(-0.00284364 -0.00482659 0)
(-0.00554256 -0.00296012 9.08834e-18)
(-0.00859507 0.0036994 0)
(0.00160815 0.0101073 5.70744e-19)
(0.00459966 0.00860417 0)
(0.00652248 0.00611896 0)
(0.00721653 0.00329429 2.77781e-20)
(0.00684345 0.000638561 -4.3186e-18)
(0.00567657 -0.00154302 -1.08276e-17)
(0.00399303 -0.00310881 -6.50753e-18)
(0.0020083 -0.00400318 0)
(-0.000118138 -0.00419453 -8.72676e-18)
(-0.00227565 -0.00358138 2.21085e-18)
(-0.0042089 -0.00173321 4.43369e-18)
(-0.00551228 0.0024173 1.24213e-17)
(0.00127596 0.00875347 -5.60893e-19)
(0.00369249 0.00757361 5.4777e-19)
(0.00531116 0.00558069 3.81178e-18)
(0.00596755 0.00325315 -7.53481e-18)
(0.00574109 0.00100366 -6.42398e-18)
(0.00482643 -0.000891535 -1.10453e-18)
(0.00343975 -0.00227957 1.27639e-17)
(0.00177513 -0.00308163 6.42163e-18)
(-7.33065e-06 -0.00324085 -8.59037e-18)
(-0.0017468 -0.00266283 0)
(-0.00313147 -0.00109848 -8.70022e-18)
(-0.00375637 0.00169322 -3.35679e-20)
(0.00102776 0.00769982 1.10037e-18)
(0.00299541 0.00675223 0)
(0.00435746 0.00512788 -4.27476e-18)
(0.00495399 0.00318995 1.0394e-18)
(0.00482513 0.00127312 4.19575e-18)
(0.0041019 -0.000376132 1.78253e-17)
(0.00296251 -0.0016082 -1.04946e-17)
(0.00157184 -0.00233057 -1.04918e-17)
(9.32532e-05 -0.00248213 1.89618e-17)
(-0.00130116 -0.0019897 -8.46974e-18)
(-0.00230532 -0.0007442 0)
(-0.0026193 0.00119734 -9.41561e-18)
(0.000835966 0.00687103 -1.07967e-18)
(0.00244976 0.00609595 0)
(0.00359253 0.00475189 0)
(0.00412571 0.00311955 3.12533e-18)
(0.00405664 0.00147449 1.03752e-17)
(0.00348553 3.12044e-05 -9.27663e-18)
(0.00254633 -0.00106565 8.23423e-18)
(0.00139316 -0.00172515 -8.26159e-18)
(0.000170936 -0.00188287 -1.65507e-17)
(-0.000942013 -0.0014949 -8.41122e-22)
(-0.0016884 -0.000533784 8.33239e-18)
(-0.00185178 0.000845399 0)
(0.000685278 0.00621541 5.29509e-19)
(0.00201338 0.00556974 -2.09396e-18)
(0.00297017 0.00444096 0)
(0.00343959 0.00305084 0)
(0.00340586 0.00162747 -9.15732e-18)
(0.00295633 0.000355138 -7.11172e-18)
(0.0021793 -0.000626774 0)
(0.00123089 -0.00123854 8.10125e-18)
(0.000221768 -0.00140958 6.08568e-18)
(-0.000664504 -0.00112798 1.01782e-17)
(-0.00123045 -0.00039859 -1.63359e-17)
(-0.00131988 0.000595165 1.78342e-17)
(0.000564781 0.00569444 1.55773e-26)
(0.00165791 0.00514904 2.56451e-18)
(0.00245873 0.00418644 -5.11039e-19)
(0.00286294 0.00298961 -1.00493e-18)
(0.00285338 0.00174342 2.00458e-18)
(0.00249482 0.000614309 6.97192e-18)
(0.00185609 -0.000275132 0)
(0.00107546 -0.000847765 0)
(0.000248994 -0.00103895 7.97514e-18)
(-0.000458907 -0.00085161 0)
(-0.000892818 -0.000308977 6.00473e-18)
(-0.000943852 0.000413183 -1.52387e-17)
(0.000466509 0.0052813 1.01965e-18)
(0.00136547 0.00481191 2.01775e-18)
(0.00202834 0.0039803 3.99681e-18)
(0.00237784 0.00293542 0)
(0.00237073 0.00183602 9.82193e-19)
(0.00209655 0.000819476 -2.9402e-18)
(0.00155785 1.15619e-05 3.91325e-18)
(0.000933088 -0.000538574 -1.17329e-17)
(0.0002467 -0.000744322 -5.86638e-18)
(-0.00030692 -0.000645746 0)
(-0.000646781 -0.00024514 1.56942e-17)
(-0.000672602 0.000279714 1.69838e-17)
(0.000385048 0.00495429 -2.00052e-18)
(0.00112017 0.00454635 -1.97919e-18)
(0.00166793 0.00381362 -3.92044e-18)
(0.00195505 0.00289499 9.69831e-19)
(0.00196151 0.00190438 -5.0675e-21)
(0.00173022 0.000989547 -9.64763e-19)
(0.00130062 0.000234379 0)
(0.000778652 -0.000286367 -5.89967e-21)
(0.000235058 -0.000519614 -1.9207e-18)
(-0.000212408 -0.000485851 1.72954e-17)
(-0.000464398 -0.000202206 -1.53943e-17)
(-0.00047994 0.000181058 -1.6596e-17)
(0.000313874 0.00469813 9.81389e-19)
(0.000914629 0.00433499 -1.94369e-18)
(0.00136144 0.00368473 3.85231e-18)
(0.00159016 0.00285959 0)
(0.00160812 0.00196082 0)
(0.00139984 0.00112586 -5.67747e-18)
(0.00106974 0.000410533 5.65739e-18)
(0.000623102 -8.21049e-05 2.26075e-17)
(0.000206516 -0.000349013 1.50739e-17)
(-0.0001574 -0.000359404 1.88749e-18)
(-0.000335109 -0.000175345 -1.88635e-18)
(-0.000338989 0.00011137 0)
(0.000245561 0.00449917 0)
(0.000706232 0.00417515 1.90713e-18)
(0.00104228 0.0035938 -3.77985e-18)
(0.0012169 0.00284733 9.3515e-19)
(0.00121794 0.00203054 -9.3515e-19)
(0.00105518 0.00125358 7.4235e-18)
(0.000789843 0.000579917 -7.40379e-18)
(0.000449322 8.96635e-05 -1.47909e-17)
(0.000132848 -0.000199913 -1.47904e-17)
(-0.00012538 -0.000270675 -1.48005e-17)
(-0.000237083 -0.000165745 1.6664e-17)
(-0.000211553 3.30484e-05 -1.98114e-18)
(0.00030597 0.00768885 3.32823e-18)
(0.000864845 0.00717299 -6.59232e-18)
(0.00126842 0.00624376 0)
(0.00146584 0.00503843 -1.29688e-17)
(0.00144169 0.00370836 -1.28904e-17)
(0.00121449 0.00241664 0)
(0.000857912 0.00127699 3.19777e-18)
(0.000427769 0.000405268 -6.39317e-18)
(4.40832e-05 -0.000154607 -4.577e-22)
(-0.000230873 -0.000378428 3.19586e-18)
(-0.000302339 -0.000314112 -5.11817e-17)
(-0.000200297 -8.44201e-05 0)
(0.00334112 -0.00814312 -1.08208e-17)
(-0.00318893 -0.00505791 -1.22572e-17)
(-0.00495802 -0.00230277 1.23428e-17)
(-0.00542431 0.000350335 0)
(-0.00510632 0.00286669 1.00618e-17)
(-0.00405297 0.00521109 2.5209e-18)
(-0.00225008 0.00723742 -7.58458e-18)
(0.000294641 0.00870041 -3.76126e-18)
(0.00347319 0.0092564 -6.27161e-18)
(0.00697351 0.00851604 0)
(0.0101634 0.00619305 2.43516e-18)
(0.0121446 0.00240386 -5.95266e-19)
(0.00211252 -0.00511693 0)
(-0.001921 -0.00377639 1.20218e-17)
(-0.00367966 -0.00179194 -1.21058e-17)
(-0.00421462 0.000389389 0)
(-0.00395896 0.00252356 7.33279e-18)
(-0.00301238 0.00449923 2.45438e-18)
(-0.00140951 0.00616219 -9.8087e-18)
(0.000798451 0.0072952 2.98269e-20)
(0.00347838 0.0076292 0)
(0.00632925 0.00689014 0)
(0.00884427 0.00492702 0)
(0.0103709 0.00190219 -5.81785e-19)
(0.00143333 -0.00340691 0)
(-0.00124947 -0.00274642 7.08086e-18)
(-0.0027309 -0.00131901 1.18615e-17)
(-0.00323568 0.000441515 0)
(-0.00301632 0.00222763 -7.19969e-18)
(-0.00216795 0.00388185 4.78568e-18)
(-0.000748685 0.00524606 1.32147e-17)
(0.00116602 0.0061294 -2.36453e-18)
(0.0034302 0.00631925 -3.5467e-18)
(0.00578281 0.00562554 0)
(0.00780778 0.0039745 -2.31484e-18)
(0.00900699 0.00153127 5.70496e-19)
(0.000976495 -0.00231505 0)
(-0.000863231 -0.00196744 -9.26453e-18)
(-0.00203061 -0.000924008 -1.86152e-17)
(-0.00245446 0.00048739 0)
(-0.00224766 0.00196844 -2.34358e-18)
(-0.00148327 0.00334675 -7.05246e-18)
(-0.000225738 0.00446493 9.35268e-18)
(0.00143699 0.00515811 4.67696e-18)
(0.00336541 0.00525603 1.80356e-20)
(0.00532154 0.00462935 5.7028e-19)
(0.00697493 0.00324 1.98083e-18)
(0.00794659 0.00124716 -2.81295e-19)
(0.000664844 -0.00159225 2.48863e-18)
(-0.000622017 -0.00139425 -4.54892e-18)
(-0.00151009 -0.000614893 9.11812e-18)
(-0.00183492 0.000515132 2.28407e-18)
(-0.00162478 0.00173555 1.14507e-17)
(-0.000929698 0.00288007 -2.29213e-18)
(0.000189954 0.00379465 -1.71715e-17)
(0.00164047 0.00434419 -5.99784e-21)
(0.00329211 0.00438266 4.52863e-18)
(0.00494102 0.00383184 -5.61016e-18)
(0.00631423 0.0026657 0)
(0.00711005 0.00102592 1.09397e-18)
(0.000451068 -0.0011026 0)
(-0.000460075 -0.000978331 -2.23335e-18)
(-0.00111763 -0.000384585 2.23335e-18)
(-0.00134497 0.000521598 0)
(-0.00112074 0.00152179 -6.7379e-18)
(-0.000482417 0.00247092 -8.96506e-18)
(0.000523286 0.00321499 6.72486e-18)
(0.00179459 0.00365896 -1.11093e-18)
(0.00322676 0.00365577 1.11093e-18)
(0.00462557 0.00319278 4.39593e-18)
(0.00577728 0.00220579 0)
(0.0064466 0.000847562 -1.07274e-18)
(0.000303778 -0.000764944 1.89906e-17)
(-0.000344743 -0.00068014 1.53192e-17)
(-0.000819232 -0.000220619 -3.36628e-21)
(-0.000957304 0.000505112 2.1936e-18)
(-0.000715567 0.0013237 8.78155e-18)
(-0.000120814 0.00210477 1.09821e-17)
(0.00079028 0.00271392 -2.19273e-18)
(0.00191544 0.00307011 0)
(0.00316767 0.00305057 0)
(0.0043733 0.00266063 0)
(0.00534638 0.00183435 1.86148e-18)
(0.00591546 0.00070339 2.6432e-19)
(0.000201387 -0.000530121 -1.62293e-17)
(-0.000260241 -0.000467991 -1.93186e-17)
(-0.000589731 -0.000111891 0)
(-0.000652381 0.000471896 0)
(-0.000387833 0.0011316 -1.50658e-17)
(0.000169133 0.00178233 8.59047e-18)
(0.00100912 0.002264 -9.64923e-18)
(0.00200881 0.00257333 -1.06682e-17)
(0.00312468 0.00252191 1.0642e-18)
(0.00416576 0.00223131 -5.23531e-19)
(0.00499832 0.00152099 -1.56139e-18)
(0.00549021 0.00057921 -1.03033e-18)
(0.000129285 -0.000364268 0)
(-0.000196903 -0.00032149 -2.10696e-18)
(-0.000415253 -4.24268e-05 2.10696e-18)
(-0.00041129 0.000415884 2.10905e-18)
(-0.000129364 0.000958116 8.43813e-18)
(0.00040537 0.00147542 -8.43416e-18)
(0.00118103 0.00188656 6.30472e-18)
(0.00208981 0.00211529 1.67319e-17)
(0.00308678 0.00209691 0)
(0.00401437 0.00183472 5.13023e-19)
(0.00471278 0.00125569 -5.13023e-19)
(0.00515079 0.000474782 1.01064e-18)
(7.50075e-05 -0.000246961 0)
(-0.000150664 -0.000219977 -2.06692e-18)
(-0.000285597 -5.69993e-06 -9.97776e-22)
(-0.000221283 0.000350162 1.86118e-17)
(7.02294e-05 0.00079303 -1.8603e-17)
(0.000599605 0.0011977 1.23837e-17)
(0.00131202 0.00155606 -1.0346e-18)
(0.00216283 0.00170783 -1.0251e-17)
(0.00305593 0.00173784 1.02164e-18)
(0.00388783 0.00146452 4.0408e-18)
(0.0044999 0.00101536 0)
(0.00488076 0.000384236 9.91008e-19)
(2.2511e-05 -0.000150547 0)
(-0.000124313 -0.000147239 0)
(-0.000180374 -6.33367e-06 0)
(-6.38081e-05 0.000253886 -1.62327e-17)
(0.000255341 0.000580701 3.44725e-17)
(0.000772677 0.000898271 -1.01268e-17)
(0.00145195 0.00116596 1.00706e-18)
(0.00223781 0.00129719 -1.00706e-18)
(0.00305494 0.00131058 0)
(0.00379809 0.00109581 -8.42124e-18)
(0.00434288 0.000749931 4.6653e-18)
(0.00467576 0.000285287 -1.21666e-18)
(-5.79584e-05 -0.000139991 3.15641e-17)
(-0.000208501 -0.000189545 0)
(-0.000193818 -7.18112e-05 -3.50457e-18)
(0.000101074 0.000215979 3.15425e-17)
(0.000710645 0.000609869 -2.45247e-17)
(0.00162153 0.00101483 -6.99166e-18)
(0.00277377 0.00136157 1.91778e-17)
(0.00407708 0.00154897 -3.46956e-18)
(0.00540819 0.00156829 1.73017e-18)
(0.00659664 0.00131611 1.36939e-17)
(0.0074775 0.000892495 -6.78612e-18)
(0.00799944 0.000329412 -3.35947e-18)
)
;

boundaryField
{
    rotor
    {
        type            fixedValue;
        value           nonuniform List<vector> 
48
(
(-0.00660572 -0.201784 0)
(-0.0197889 -0.20092 0)
(-0.0328873 -0.199195 0)
(-0.0458448 -0.196618 0)
(-0.0586061 -0.193198 0)
(-0.0711164 -0.188952 0)
(-0.0833222 -0.183896 0)
(-0.0951712 -0.178053 0)
(-0.106613 -0.171447 0)
(-0.117597 -0.164107 0)
(-0.128079 -0.156065 0)
(-0.138012 -0.147354 0)
(-0.147354 -0.138012 0)
(-0.156065 -0.128079 0)
(-0.164107 -0.117597 0)
(-0.171447 -0.106613 0)
(-0.178053 -0.0951712 0)
(-0.183896 -0.0833222 0)
(-0.188952 -0.0711164 0)
(-0.193198 -0.0586061 0)
(-0.196618 -0.0458448 0)
(-0.199195 -0.0328873 0)
(-0.20092 -0.0197889 0)
(-0.201784 -0.00660572 0)
(-7.70459e-10 -0.214625 0)
(-8.61102e-10 -0.239875 0)
(-9.51744e-10 -0.265125 0)
(-1.04239e-09 -0.290375 0)
(-1.13303e-09 -0.315625 0)
(-1.22367e-09 -0.340875 0)
(-1.31431e-09 -0.366125 0)
(-1.40496e-09 -0.391375 0)
(-1.4956e-09 -0.416625 0)
(-1.58624e-09 -0.441875 0)
(-1.67688e-09 -0.467125 0)
(-1.76752e-09 -0.492375 0)
(-0.214625 3.8523e-10 0)
(-0.239875 4.30551e-10 0)
(-0.265125 4.75872e-10 0)
(-0.290375 5.21193e-10 0)
(-0.315625 5.66514e-10 0)
(-0.340875 6.11835e-10 0)
(-0.366125 6.57157e-10 0)
(-0.391375 7.02478e-10 0)
(-0.416625 7.47799e-10 0)
(-0.441875 7.9312e-10 0)
(-0.467125 8.38441e-10 0)
(-0.492375 8.83762e-10 0)
)
;
    }
    stator
    {
        type            noSlip;
    }
    front
    {
        type            empty;
    }
    back
    {
        type            empty;
    }
    procBoundary2to0
    {
        type            processor;
        value           nonuniform List<vector> 
20
(
(-0.129681 0.138843 -4.47059e-19)
(-0.0577808 0.0817005 3.58117e-19)
(-0.0263804 0.0536273 5.00114e-21)
(-0.0141427 0.0378487 -3.4332e-19)
(-0.00860777 0.0281456 0)
(-0.00574494 0.0217718 3.23119e-19)
(-0.00408943 0.0173696 6.2015e-19)
(-0.00304294 0.014212 -1.21535e-18)
(-0.00233678 0.01188 1.11572e-21)
(-0.00183445 0.0101187 1.1646e-18)
(-0.00146416 0.00876519 -5.70593e-19)
(-0.001182 0.00771103 5.58397e-19)
(-0.000961586 0.00688155 -1.0947e-18)
(-0.000786464 0.00622549 5.36548e-19)
(-0.000644554 0.00570373 1.55773e-26)
(-0.000525765 0.00528961 1.03082e-18)
(-0.000427196 0.00496063 -2.022e-18)
(-0.000342865 0.00470341 9.91708e-19)
(-0.000256279 0.00450547 0)
(-0.000306057 0.00770263 1.68069e-18)
)
;
    }
    procBoundary2to3
    {
        type            processor;
        value           nonuniform List<vector> 
20
(
(0.140679 -0.130434 -3.23143e-20)
(0.0828495 -0.057748 9.94999e-27)
(0.0544205 -0.0260745 3.1365e-19)
(0.0384437 -0.0137551 3.17254e-19)
(0.0286176 -0.00820696 6.2452e-19)
(0.02217 -0.005359 -9.17282e-19)
(0.0177168 -0.00372842 -1.5002e-18)