/*--------------------------------*- C++ -*----------------------------------*\
  =========                 |
  \\      /  F ield         | OpenFOAM: The Open Source CFD Toolbox
   \\    /   O peration     | Website:  https://openfoam.org
    \\  /    A nd           | Version:  6
     \\/     M anipulation  |
\*---------------------------------------------------------------------------*/
FoamFile
{
    version     2.0;
    format      ascii;
    class       volScalarField;
    location    "2000";
    object      nut;
}
// * * * * * * * * * * * * * * * * * * * * * * * * * * * * * * * * * * * * * //

dimensions      [0 2 -1 0 0 0 0];

internalField   nonuniform List<scalar> 
768
(
7.49025e-05
0.000151874
0.000166233
0.000173365
0.000176666
0.000178671
0.000178583
0.000177413
0.000173683
0.000171992
0.000174935
0.000176872
8.29116e-05
0.000548148
0.000927089
0.00115591
0.00127819
0.00133631
0.00136691
0.00138461
0.00139672
0.00139367
0.00138507
0.00138335
9.48418e-05
0.000749099
0.00152362
0.00220992
0.00266419
0.00289212
0.00298819
0.00302592
0.0030417
0.00304333
0.00303853
0.00303511
0.000107048
0.000844014
0.00182895
0.00281427
0.0035078
0.00385831
0.00399907
0.00404929
0.00406617
0.00406959
0.00406807
0.00406602
0.000116085
0.000903616
0.00199092
0.00309061
0.00385066
0.00421874
0.00435923
0.0044056
0.00441996
0.00442368
0.00442426
0.00442377
0.000124001
0.000963882
0.00210923
0.00324566
0.00399666
0.00434153
0.00446618
0.00450557
0.0045161
0.00451867
0.00451922
0.00451897
0.000135347
0.00102147
0.00221437
0.00336118
0.00408189
0.00439461
0.00450282
0.00453518
0.00454328
0.00454434
0.00454395
0.00454411
0.000146051
0.00108214
0.00231336
0.00345779
0.00414369
0.00442636
0.00451977
0.00454659
0.00455184
0.00455153
0.00455118
0.00455051
0.000158267
0.00111878
0.00239211
0.00353549
0.00419152
0.00444947
0.00453044
0.00455181
0.00455624
0.00455587
0.00455471
0.00455292
0.000172476
0.00112346
0.00244225
0.00359513
0.0042304
0.00446775
0.00453851
0.00455655
0.00455989
0.0045582
0.00455693
0.004557
0.000178564
0.00106267
0.00247019
0.00365573
0.00426974
0.00448475
0.00454479
0.00455822
0.0045599
0.00455775
0.004559
0.00456106
0.000210259
0.00111203
0.0026207
0.00378755
0.00432835
0.00450516
0.00455214
0.0045609
0.0045605
0.00455836
0.004559
0.00456178
0.000173267
0.000173435
0.000172641
0.000170593
0.000174646
0.00017305
0.000168187
0.00016544
0.000156904
0.000143291
0.000117092
4.52529e-05
0.00139059
0.00139265
0.00139131
0.00138723
0.00138341
0.00137816
0.00137138
0.00132212
0.00116513
0.000867417
0.000410833
7.15393e-05
0.00303562
0.00303495
0.00303308
0.00303039
0.00302692
0.00301662
0.0029726
0.00279328
0.00231916
0.00156266
0.000700262
9.13799e-05
0.00406476
0.00406378
0.00406257
0.00406121
0.00405904
0.00404828
0.00398811
0.00373631
0.0030604
0.00200128
0.00089313
0.000104278
0.00442325
0.00442258
0.00442191
0.00442115
0.00442007
0.00441173
0.00435838
0.00411743
0.00341513
0.00223728
0.000981589
0.000114643
0.00451889
0.00451868
0.00451835
0.00451812
0.0045176
0.00451196
0.00447
0.00426523
0.00360843
0.00240745
0.00106438
0.000125893
0.00454421
0.00454345
0.0045426
0.00454209
0.00454228
0.00453865
0.00450766
0.00433984
0.00374946
0.00256579
0.00115472
0.000132986
0.0045502
0.00454954
0.00454867
0.00454805
0.0045482
0.00454675
0.00452418
0.00438935
0.00386754
0.00271981
0.00126777
0.000143965
0.0045541
0.00455402
0.00455288
0.00455308
0.00455297
0.00455165
0.00453483
0.00442763
0.00397392
0.0028753
0.00137267
0.000161192
0.00455729
0.0045566
0.00455687
0.00455803
0.00455794
0.00455634
0.00454322
0.00445899
0.00407273
0.00303549
0.00150327
0.00018307
0.0045587
0.00455877
0.00456143
0.00456274
0.00456133
0.00455916
0.00454914
0.00448529
0.0041681
0.00321771
0.00166408
0.000211903
0.00456123
0.0045628
0.00456553
0.00456436
0.00456289
0.0045616
0.00455447
0.0045104
0.00427253
0.00345593
0.00191715
0.000260303
0.0011879
0.00215008
0.00326519
0.00406269
0.00441531
0.00452926
0.00455964
0.00456233
0.00456124
0.00456217
0.00456241
0.00456375
0.00249423
0.00317734
0.00387156
0.0043066
0.00449049
0.00454982
0.00456577
0.00456804
0.0045679
0.00456793
0.00456444
0.00456521
0.00358724
0.00392185
0.00425953
0.00445592
0.00453715
0.00456293
0.00456863
0.00456879
0.00456865
0.00456956
0.00456534
0.00456359
0.00420051
0.0043215
0.00445351
0.00452917
0.00456055
0.00457036
0.00457211
0.00457352
0.00457343
0.00457101
0.00455628
0.00452352
0.0045635
0.00456463
0.0045664
0.00456658
0.00456695
0.00456537
0.00456034
0.00453482
0.00439456
0.00384225
0.00260392
0.00100096
0.00456719
0.00456689
0.00456618
0.00456669
0.00456867
0.00456859
0.00456528
0.00455236
0.00448582
0.00420278
0.00344853
0.00230331
0.00456432
0.00456791
0.00457086
0.00457008
0.0045696
0.00456948
0.00456938
0.00456381
0.00453619
0.00441865
0.00407207
0.00346802
0.00452027
0.00455175
0.00456989
0.00457188
0.00457074
0.00457137
0.00457256
0.00457093
0.00455998
0.0045171
0.0043886
0.00415458
0.00444985
0.00449253
0.00453638
0.00456124
0.00457121
0.00457424
0.00457465
0.00457474
0.00457322
0.00456099
0.0044953
0.00434666
0.00453763
0.00455147
0.00456528
0.00457281
0.00457571
0.00457666
0.00457682
0.00457636
0.00457006
0.00452101
0.00428441
0.00382337
0.00456607
0.00457096
0.00457522
0.00457743
0.00457817
0.00457849
0.00457852
0.00457702
0.00455816
0.00441489
0.00380673
0.00285133
0.00457529
0.00457764
0.00457916
0.00457972
0.00457984
0.00457998
0.00457986
0.00457626
0.00453472
0.00423507
0.00312623
0.00154315
0.00433364
0.00447555
0.00455008
0.00457043
0.00457428
0.00457503
0.00457545
0.00457468
0.00457077
0.00455542
0.00451045
0.00443541
0.00380084
0.00425083
0.00449383
0.00456121
0.00457494
0.00457708
0.00457749
0.00457733
0.00457602
0.00457114
0.0045569
0.00453487
0.00283338
0.00379306
0.00437631
0.00454113
0.0045733
0.00457824
0.00457903
0.00457923
0.00457878
0.00457736
0.0045731
0.00456673
0.00152038
0.00313095
0.00420225
0.00451212
0.00457039
0.00457918
0.0045804
0.00458065
0.00458047
0.00458013
0.00457888
0.00457685
0.00457875
0.00458042
0.00458113
0.00458125
0.00458122
0.00458135
0.00458105
0.00457509
0.00450981
0.00406021
0.00243396
0.000336832
0.00458052
0.00458204
0.00458254
0.00458255
0.00458245
0.00458254
0.00458219
0.00457522
0.00450026
0.00399909
0.00229647
0.000276738
0.0045818
0.00458325
0.0045836
0.00458365
0.00458356
0.00458361
0.00458331
0.00457652
0.00450285
0.00400463
0.00230225
0.000273599
0.00458266
0.00458389
0.00458406
0.00458408
0.00458408
0.00458415
0.0045839
0.00457791
0.00451068
0.00403849
0.00235784
0.000282134
0.00458039
0.00458109
0.00458112
0.00458117
0.00458121
0.00458126
0.00458099
0.00457591
0.0045164
0.00407792
0.00242797
0.000293283
0.00455616
0.00455407
0.00455356
0.00455341
0.00455337
0.00455341
0.0045532
0.00454906
0.00449731
0.00409548
0.00249102
0.000304265
0.00443565
0.00442665
0.0044245
0.00442391
0.00442361
0.00442367
0.00442364
0.00442058
0.00437694
0.00402015
0.00251152
0.00031446
0.00404679
0.00402785
0.00402318
0.00402177
0.00402095
0.00402109
0.00402139
0.00401981
0.00398647
0.00370042
0.00241185
0.000317366
0.00323361
0.00321313
0.00320764
0.00320568
0.00320448
0.00320482
0.00320539
0.00320567
0.00318565
0.0030015
0.00209454
0.000308436
0.00217737
0.00217061
0.00216703
0.00216438
0.0021641
0.00216428
0.00216521
0.00216686
0.0021584
0.00207134
0.00157687
0.000282738
0.00103193
0.00102486
0.00102192
0.00101985
0.00101993
0.00102062
0.00102106
0.00102351
0.00102169
0.000995887
0.000818346
0.000231455
0.000105309
0.000104768
0.000104458
0.000104138
0.0001039
0.000103797
0.000103679
0.000103749
0.000103619
0.000102092
9.05252e-05
5.0507e-05
0.000337257
0.00246958
0.00403188
0.00448493
0.0045679
0.00458002
0.00458164
0.00458186
0.00458173
0.00458174
0.00458141
0.00458051
0.000279023
0.00231697
0.00396643
0.00447386
0.00456751
0.00458106
0.0045828
0.00458297
0.00458284
0.00458303
0.00458298
0.00458232
0.000273473
0.00230891
0.00396687
0.00447611
0.004569
0.00458228
0.00458389
0.00458404
0.00458402
0.00458417
0.00458414
0.00458361
0.000281483
0.00235322
0.00399724
0.00448491
0.00457115
0.00458318
0.00458458
0.00458466
0.00458464
0.00458477
0.00458475
0.00458433
0.000291469
0.00241458
0.00403505
0.0044925
0.00456998
0.0045804
0.00458157
0.00458157
0.0045816
0.00458164
0.00458156
0.00458131
0.00030289
0.00247295
0.00405367
0.00447605
0.00454446
0.00455335
0.00455436
0.00455433
0.00455447
0.00455452
0.00455429
0.00455414
0.000312349
0.00249324
0.00398361
0.00436013
0.00441888
0.00442647
0.00442746
0.00442755
0.00442772
0.00442756
0.00442716
0.00442775
0.000317572
0.00239852
0.00367491
0.00397739
0.00402349
0.0040298
0.00403108
0.00403144
0.00403149
0.00403114
0.00403046
0.00403152
0.000310192
0.00208629
0.00298874
0.00318534
0.00321496
0.00321957
0.00322108
0.00322164
0.00322138
0.00322077
0.00321986
0.00322051
0.000286016
0.0015685
0.00206663
0.00216305
0.00217747
0.00218007
0.00218093
0.00218072
0.00217955
0.00217969
0.0021791
0.00217727
0.000235314
0.000821905
0.000997046
0.00102692
0.00103148
0.00103208
0.00103262
0.0010314
0.00102993
0.00102954
0.00103028
0.00102746
5.00402e-05
9.02582e-05
0.000101817
0.000103606
0.000104056
0.000104217
0.000104477
0.000104663
0.000104767
0.000104806
0.000105326
0.000105378
)
;

boundaryField
{
    rotor
    {
        type            nutkWallFunction;
        Cmu             0.09;
        kappa           0.41;
        E               9.8;
        value           nonuniform List<scalar> 
48
(
9.49886e-06
2.27126e-05
2.37387e-05
2.44522e-05
2.4335e-05
2.47178e-05
2.46599e-05
2.47004e-05
2.41651e-05
2.41767e-05
2.46549e-05
2.48753e-05
2.44058e-05
2.43784e-05
2.41239e-05
2.42075e-05
2.46028e-05
2.4808e-05
2.43293e-05
2.40116e-05
2.32714e-05
2.19956e-05
1.95398e-05
5.43343e-06
9.49886e-06
9.47648e-06
1.12657e-05
1.31639e-05
1.48746e-05
1.67952e-05
1.85676e-05
2.06966e-05
2.252e-05
2.44609e-05
2.63727e-05
3.26278e-05
5.43343e-06
8.88915e-06
1.13869e-05
1.33088e-05
1.51625e-05
1.68685e-05
1.86824e-05
2.06393e-05
2.32694e-05
2.588e-05
2.90657e-05
3.39556e-05
)
;
    }
    stator
    {
        type            nutkWallFunction;
        Cmu             0.09;
        kappa           0.41;
        E               9.8;
        value           nonuniform List<scalar> 
48
(
1.53548e-05
1.52877e-05
1.52509e-05
1.52184e-05
1.51787e-05
1.51609e-05
1.51464e-05
1.51342e-05
1.51164e-05
1.50143e-05
1.41146e-05
9.92636e-06
9.89214e-06
1.40946e-05
1.49837e-05
1.51072e-05
1.51458e-05
1.51665e-05
1.52083e-05
1.52312e-05
1.52626e-05
1.53073e-05
1.53402e-05
1.53223e-05
4.80733e-05
4.40482e-05
4.46285e-05
4.61934e-05
4.79312e-05
4.97459e-05
5.14852e-05
5.29775e-05
5.36058e-05
5.24443e-05
4.77772e-05
9.89214e-06
4.80608e-05
4.39095e-05
4.46034e-05
4.6204e-05
4.79897e-05
4.98033e-05
5.15959e-05
5.29965e-05
5.34857e-05
5.21409e-05
4.73874e-05
9.92636e-06
)
;
    }
    front
    {
        type            empty;
    }
    back
    {
        type            empty;
    }
    procBoundary0to1
    {
        type            processor;
        value           nonuniform List<scalar> 
20
(
0.000997545
0.00229326
0.00345708
0.00414885
0.00443323
0.00453409
0.0045664
0.00457666
0.00458032
0.00458211
0.0045834
0.00458415
0.00458117
0.00455405
0.00442752
0.00403091
0.00321962
0.00217665
0.00102702
0.000104773
)
;
    }
    procBoundary0to2
    {
        type            processor;
        value           nonuniform List<scalar> 
20
(
0.00118864
0.00250284
0.00359662
0.00420514
0.00445155
0.00453806
0.00456608
0.00457522
0.00457871
0.00458053
0.00458188
0.00458275
0.00458047
0.00455626
0.00443596
0.00404746
0.00323456
0.00217785
0.0010324
0.000105715
)
;
    }
}


// ************************************************************************* //
