/*--------------------------------*- C++ -*----------------------------------*\
  =========                 |
  \\      /  F ield         | OpenFOAM: The Open Source CFD Toolbox
   \\    /   O peration     | Website:  https://openfoam.org
    \\  /    A nd           | Version:  6
     \\/     M anipulation  |
\*---------------------------------------------------------------------------*/
FoamFile
{
    version     2.0;
    format      ascii;
    class       volVectorField;
    location    "2000";
    object      U;
}
// * * * * * * * * * * * * * * * * * * * * * * * * * * * * * * * * * * * * * //

dimensions      [0 1 -1 0 0 0 0];

internalField   nonuniform List<vector> 
768
(
(1.38187 -0.254319 5.91133e-21)
(1.31698 -0.216566 0)
(1.26018 -0.282489 -2.8002e-20)
(1.2102 -0.369986 0)
(1.16277 -0.43662 -4.98621e-19)
(1.12667 -0.498367 4.82364e-19)
(1.07914 -0.557 0)
(1.03467 -0.618185 6.84715e-19)
(0.976997 -0.674125 -1.08149e-18)
(0.92455 -0.733046 6.71023e-19)
(0.866232 -0.789627 2.57067e-20)
(0.810692 -0.848512 -1.25668e-20)
(0.999618 -0.383498 -5.65325e-20)
(0.883719 -0.199104 3.5136e-20)
(0.733761 -0.164219 -3.73357e-20)
(0.65216 -0.170842 0)
(0.603302 -0.186928 1.29084e-19)
(0.56669 -0.204113 -1.22722e-19)
(0.534913 -0.224029 0)
(0.506372 -0.24641 -8.33595e-20)
(0.478451 -0.271392 1.5154e-19)
(0.450827 -0.297566 -9.42813e-20)
(0.422727 -0.324777 -2.85902e-20)
(0.394893 -0.351569 -4.0391e-20)
(0.926889 -0.336393 -1.0508e-20)
(0.70859 -0.139955 0)
(0.520163 -0.0913165 2.78297e-20)
(0.431378 -0.0867532 0)
(0.387103 -0.0945099 0)
(0.357835 -0.105539 5.41254e-20)
(0.334112 -0.118574 -2.18317e-19)
(0.313112 -0.133066 1.36375e-19)
(0.293407 -0.148974 -2.77398e-20)
(0.274407 -0.165659 0)
(0.255673 -0.182957 1.88237e-21)
(0.237237 -0.200358 -1.90872e-20)
(0.942425 -0.241422 -5.12696e-20)
(0.672726 -0.0589414 -9.23606e-21)
(0.467872 -0.0348446 -2.36738e-20)
(0.377568 -0.0404221 -8.25802e-20)
(0.334653 -0.0528236 6.66556e-20)
(0.306794 -0.0662089 5.60374e-20)
(0.284136 -0.0803137 0)
(0.26407 -0.0947204 0)
(0.245305 -0.109927 -1.57743e-20)
(0.227542 -0.125396 0)
(0.210212 -0.141367 7.30719e-21)
(0.193426 -0.157321 1.50972e-20)
(0.982171 -0.145512 -6.24271e-20)
(0.686044 0.0264266 7.06927e-21)
(0.465108 0.0163637 5.05743e-20)
(0.371429 -0.00492349 0)
(0.327091 -0.0242582 0)
(0.297606 -0.0420208 -5.62139e-20)
(0.273592 -0.0586629 0)
(0.252104 -0.0753314 3.89179e-20)
(0.232357 -0.0918145 -1.26871e-20)
(0.213601 -0.108577 -1.11431e-20)
(0.195746 -0.125183 -5.20296e-20)
(0.178252 -0.141997 4.14216e-20)
(1.03669 0.0138739 1.48628e-19)
(0.707744 0.123543 2.71986e-20)
(0.473807 0.0710922 -4.83284e-20)
(0.376101 0.0312761 -7.52839e-21)
(0.32863 0.00321657 -7.66511e-20)
(0.296696 -0.0194975 1.10338e-19)
(0.270597 -0.0397673 -6.09051e-20)
(0.247446 -0.0591572 2.05303e-20)
(0.226324 -0.0779195 0)
(0.206479 -0.096389 0)
(0.187612 -0.114456 1.04712e-19)
(0.169219 -0.132386 2.57743e-20)
(1.08256 0.162513 -5.67067e-20)
(0.730339 0.23173 6.7489e-20)
(0.481568 0.131736 0)
(0.379008 0.071555 9.79365e-20)
(0.328366 0.0333037 -7.43077e-20)
(0.293965 0.00498277 -1.56419e-19)
(0.265935 -0.0197465 -6.29803e-20)
(0.241632 -0.0422086 1.22561e-20)
(0.219449 -0.0637834 -1.65482e-20)
(0.198996 -0.0840686 1.24088e-20)
(0.17928 -0.103881 8.21405e-20)
(0.160313 -0.122837 1.99899e-20)
(1.0979 0.326312 -6.60427e-20)
(0.742697 0.347024 -1.28715e-19)
(0.484466 0.198883 0)
(0.376924 0.115353 1.0453e-19)
(0.322672 0.0661067 7.34208e-20)
(0.285982 0.0307953 2.4483e-20)
(0.256959 0.00150464 1.38572e-19)
(0.232094 -0.0247808 2.28975e-20)
(0.209867 -0.0488775 9.00713e-21)
(0.189188 -0.0713692 4.84641e-20)
(0.169444 -0.092445 -6.8874e-20)
(0.150003 -0.112558 -6.72801e-21)
(1.09178 0.462651 7.97788e-19)
(0.748776 0.479041 -9.04954e-20)
(0.478486 0.273743 2.55672e-19)
(0.366186 0.162805 -1.01885e-19)
(0.309225 0.0999571 0)
(0.271574 0.0568289 0)
(0.24272 0.0222656 -2.88228e-20)
(0.218578 -0.00767131 1.61956e-20)
(0.197142 -0.0343803 -1.12175e-20)
(0.177159 -0.0586241 -4.82931e-20)
(0.157872 -0.0808601 -7.55955e-20)
(0.138626 -0.101578 0)
(1.02915 0.672851 -1.74884e-19)
(0.722951 0.630413 -3.32471e-19)
(0.454537 0.355573 -3.29148e-19)
(0.342455 0.211621 0)
(0.285899 0.132981 -8.99307e-20)
(0.24994 0.0811221 0)
(0.223311 0.0411967 2.683e-20)
(0.20138 0.00785839 2.58297e-20)
(0.181816 -0.0210548 7.52233e-20)
(0.163333 -0.0466379 0)
(0.145126 -0.0696063 0)
(0.126573 -0.0905212 -2.46811e-19)
(0.725527 0.878659 1.43099e-18)
(0.590058 0.770233 -2.10262e-19)
(0.389434 0.428304 3.07668e-20)
(0.296767 0.254658 1.12451e-19)
(0.250171 0.161159 6.31794e-20)
(0.220935 0.101241 2.42522e-20)
(0.199392 0.0567703 -1.8794e-20)
(0.181331 0.0208176 -1.37532e-19)
(0.164684 -0.00959547 -5.5827e-20)
(0.148401 -0.0359447 -1.82454e-19)
(0.131801 -0.0591649 2.2451e-19)
(0.1144 -0.0798631 2.44488e-19)
(-0.0478704 0.909015 -4.67331e-19)
(0.250912 0.749789 5.08813e-20)
(0.256185 0.446997 5.66138e-20)
(0.223267 0.276266 -1.07412e-19)
(0.201707 0.177999 0)
(0.185802 0.114204 -2.12512e-20)
(0.172326 0.0675138 1.85634e-20)
(0.159557 0.0304206 2.48605e-20)
(0.146618 -0.000470829 -2.35672e-19)
(0.133017 -0.026902 1.80373e-19)
(0.118434 -0.0498597 -2.21983e-19)
(0.102537 -0.0699623 0)
(0.747738 -0.899207 -1.13469e-20)
(0.685968 -0.950534 -4.29585e-20)
(0.620551 -0.995891 -7.63832e-20)
(0.558804 -1.04251 2.59711e-19)
(0.492958 -1.08106 -3.26118e-19)
(0.429981 -1.11923 5.65466e-20)
(0.367148 -1.14988 -8.69173e-20)
(0.305743 -1.17794 -1.57615e-19)
(0.234507 -1.18262 -2.33608e-20)
(0.211574 -1.29222 0)
(0.247296 -1.28119 0)
(0.316578 -1.05941 -1.15621e-20)
(0.366464 -0.378075 -3.73006e-20)
(0.338289 -0.404028 7.21878e-20)
(0.309423 -0.429498 -4.16822e-20)
(0.281553 -0.454504 0)
(0.254729 -0.479237 1.34024e-19)
(0.230242 -0.504283 0)
(0.209213 -0.53104 8.61535e-20)
(0.195194 -0.563068 8.75485e-20)
(0.193126 -0.610432 -7.35262e-20)
(0.229717 -0.697522 0)
(0.342769 -0.833113 0)
(0.467724 -0.92387 -2.35111e-20)
(0.21894 -0.217897 3.09619e-20)
(0.200927 -0.235365 -1.83786e-20)
(0.183119 -0.252892 3.87187e-20)
(0.165977 -0.270515 0)
(0.149686 -0.28866 -5.18146e-20)
(0.134815 -0.307791 1.46239e-19)
(0.122009 -0.32916 -1.93382e-19)
(0.113168 -0.35516 -1.99121e-19)
(0.113182 -0.394347 1.34729e-19)
(0.136661 -0.475022 0)
(0.216399 -0.624433 1.28647e-20)
(0.359995 -0.814098 -1.77331e-20)
(0.176791 -0.173546 2.60302e-20)
(0.160556 -0.189718 -8.39065e-20)
(0.144437 -0.206211 1.15074e-19)
(0.128833 -0.222971 -1.15094e-19)
(0.113601 -0.24056 0)
(0.0992101 -0.259255 8.70851e-20)
(0.0856692 -0.280055 6.34674e-20)
(0.0743585 -0.304782 3.53998e-20)
(0.0683122 -0.340918 -8.55818e-20)
(0.0781061 -0.417129 0)
(0.129274 -0.576618 7.79688e-21)
(0.268136 -0.78675 1.03519e-19)
(0.161233 -0.158668 8.9747e-20)
(0.144247 -0.175614 -4.42901e-20)
(0.127492 -0.192649 0)
(0.110648 -0.210348 0)
(0.0940833 -0.228849 8.77083e-20)
(0.0774731 -0.248831 -8.26051e-20)
(0.0613991 -0.271012 -1.74882e-20)
(0.0458055 -0.297409 0)
(0.0322125 -0.334911 -5.511e-20)
(0.0248351 -0.41386 9.32192e-20)
(0.0361328 -0.588725 -1.35072e-19)
(0.115601 -0.850628 -1.51901e-19)
(0.151196 -0.150128 -1.87534e-19)
(0.133076 -0.167942 1.06169e-19)
(0.114857 -0.185934 3.03063e-19)
(0.0962264 -0.204535 2.21999e-20)
(0.0773044 -0.224137 -4.58238e-19)
(0.0579281 -0.245461 -2.16941e-19)
(0.0382728 -0.269397 -1.35111e-20)
(0.017666 -0.297791 0)
(-0.00483815 -0.337604 0)
(-0.0323444 -0.41825 -8.81054e-20)
(-0.0651675 -0.607783 -1.37322e-19)
(-0.0390918 -0.906432 1.611e-19)
(0.141207 -0.14167 1.20857e-19)
(0.122088 -0.160113 -2.6044e-19)
(0.102142 -0.178847 -1.50133e-19)
(0.0816421 -0.197928 5.64199e-21)
(0.0599946 -0.21824 2.18958e-19)
(0.0375671 -0.240263 2.40369e-19)
(0.0136498 -0.265363 1.38986e-19)
(-0.0124537 -0.295271 1.4532e-19)
(-0.0445347 -0.336187 -1.65202e-19)
(-0.0908775 -0.418233 0)
(-0.167888 -0.614895 2.04601e-19)
(-0.203577 -0.908897 -2.99953e-19)
(0.130447 -0.131879 0)
(0.110235 -0.150807 1.39574e-19)
(0.0890255 -0.169574 0)
(0.0664823 -0.188731 -1.77915e-20)
(0.0424383 -0.208849 -2.36623e-20)
(0.0165867 -0.230871 4.73354e-19)
(-0.0115343 -0.25594 -5.28977e-19)
(-0.0436744 -0.286283 0)
(-0.0847924 -0.328127 -1.82269e-19)
(-0.149995 -0.407983 1.17989e-19)
(-0.267862 -0.608553 -3.8328e-19)
(-0.342473 -0.896734 1.05467e-18)
(0.118892 -0.121137 1.43484e-19)
(0.0981163 -0.139894 -1.43491e-19)
(0.0758569 -0.158254 -1.81266e-19)
(0.0518129 -0.176671 2.03156e-19)
(0.0255721 -0.195876 2.35368e-19)
(-0.00323522 -0.216716 -7.27162e-19)
(-0.0356174 -0.240595 2.68959e-19)
(-0.0735858 -0.26981 0)
(-0.124004 -0.310024 1.77667e-19)
(-0.206754 -0.387009 0)
(-0.360423 -0.579844 3.96022e-19)
(-0.516024 -0.839572 -1.42374e-18)
(0.107132 -0.109841 0)
(0.0862125 -0.127975 -3.30708e-19)
(0.0634367 -0.145326 -1.9063e-19)
(0.0383834 -0.162395 -4.16273e-19)
(0.0106401 -0.1798 2.14611e-19)
(-0.0206027 -0.198385 2.46523e-19)
(-0.0565996 -0.219417 0)
(-0.100207 -0.245339 0)
(-0.159453 -0.281766 0)
(-0.259149 -0.348741 0)
(-0.45181 -0.523814 -1.02469e-19)
(-0.693206 -0.765078 3.1775e-20)
(0.0956659 -0.098523 1.57333e-19)
(0.0750609 -0.115611 1.70255e-19)
(0.0522636 -0.131511 7.41071e-19)
(0.0268713 -0.146703 1.94991e-19)
(-0.00162479 -0.161607 8.91403e-19)
(-0.0343256 -0.176873 -2.33346e-19)
(-0.0728537 -0.193434 -2.62639e-19)
(-0.12089 -0.21323 0)
(-0.187435 -0.240395 -3.39566e-19)
(-0.299737 -0.290186 -2.33424e-19)
(-0.519158 -0.409843 -2.34895e-19)
(-0.842405 -0.646008 -2.98563e-26)
(0.0848908 -0.0875877 0)
(0.0650006 -0.103287 0)
(0.0426582 -0.117458 -7.4361e-19)
(0.0176023 -0.130419 -6.14283e-19)
(-0.0108021 -0.142396 -2.28882e-19)
(-0.0436579 -0.153584 0)
(-0.0829974 -0.164256 2.59486e-19)
(-0.13277 -0.17507 0)
(-0.201993 -0.187997 1.68051e-20)
(-0.316244 -0.208216 2.14976e-19)
(-0.550072 -0.260692 8.94594e-20)
(-1.19373 -0.307901 5.22475e-19)
(-0.551136 0.278699 1.60252e-19)
(-0.106076 0.531647 0)
(0.0885581 0.393793 5.06719e-20)
(0.135459 0.26526 0)
(0.147782 0.178319 0)
(0.148631 0.117949 2.08936e-20)
(0.144498 0.0726182 0)
(0.13755 0.0363483 1.28288e-19)
(0.128569 0.00611497 1.67561e-19)
(0.117846 -0.0196717 2.31022e-19)
(0.105475 -0.0418956 -1.34146e-19)
(0.0913422 -0.061062 -1.5806e-19)
(-0.452122 0.188625 -1.01261e-20)
(-0.186088 0.361526 -1.34017e-21)
(-0.00493318 0.308126 6.47419e-21)
(0.0703103 0.229514 0)
(0.102022 0.164322 -3.02058e-20)
(0.114984 0.113371 1.84952e-19)
(0.118526 0.0725907 0)
(0.116701 0.0388796 9.85574e-20)
(0.111363 0.0103089 -9.85595e-20)
(0.103418 -0.0142116 -2.2755e-19)
(0.0932846 -0.035329 -2.77642e-19)
(0.0810758 -0.0533533 2.87803e-19)
(-0.319803 0.103507 -4.30141e-20)
(-0.173135 0.238389 4.17221e-20)
(-0.0423516 0.231815 -6.55149e-20)
(0.0301177 0.18918 4.12553e-20)
(0.0680886 0.14407 0)
(0.0873392 0.103777 -3.48505e-19)
(0.0959062 0.0689183 0)
(0.0979141 0.038738 2.26814e-19)
(0.0955749 0.0124798 -1.2367e-19)
(0.0900846 -0.0103687 2.80898e-19)
(0.0820824 -0.0301424 1.37979e-19)
(0.0719751 -0.0470168 -3.11711e-19)
(-0.228321 0.0633002 7.13745e-20)
(-0.143773 0.161344 7.33148e-20)
(-0.053007 0.173663 0)
(0.00795999 0.1528 0)
(0.044811 0.122772 0)
(0.0660387 0.0919562 4.22139e-19)
(0.0771826 0.0630374 2.37756e-19)
(0.0816455 0.0366948 -3.50262e-19)
(0.0815197 0.0130246 3.86227e-19)
(0.0780552 -0.00796964 -2.64491e-19)
(0.0720838 -0.0263751 0)
(0.0643537 -0.0424572 3.08249e-19)
(0.0751166 -0.0773357 -3.20961e-19)
(0.0562185 -0.0914112 -3.4695e-19)
(0.0347412 -0.103706 3.68966e-19)
(0.0105868 -0.114337 -3.96004e-19)
(-0.0168445 -0.123296 0)
(-0.0485224 -0.130252 -4.48295e-19)
(-0.0863688 -0.134594 6.04144e-19)
(-0.133694 -0.134986 -1.26724e-19)
(-0.197619 -0.128834 3.00165e-19)
(-0.294994 -0.108193 -8.86182e-20)
(-0.465573 -0.0511642 1.26245e-19)
(-0.828492 0.311313 -1.06112e-19)
(0.0665621 -0.0679323 3.1614e-19)
(0.0487827 -0.0802336 3.41841e-19)
(0.028461 -0.0906277 0)
(0.00562575 -0.0990604 1.9012e-19)
(-0.0201144 -0.105243 4.11727e-19)
(-0.0495325 -0.108503 2.29882e-19)
(-0.0838728 -0.107541 -9.24672e-19)
(-0.125128 -0.099959 -2.40647e-19)
(-0.176598 -0.0811867 -2.57812e-19)
(-0.243883 -0.0404548 -7.61394e-20)
(-0.327364 0.0500568 9.04833e-20)
(-0.334643 0.351987 6.17451e-20)
(0.0594732 -0.0595376 0)
(0.0426891 -0.0698789 -5.24143e-19)
(0.0236186 -0.0784414 1.76725e-19)
(0.00237166 -0.08492 1.83351e-19)
(-0.0212754 -0.0887821 3.97914e-19)
(-0.0478003 -0.0891737 -2.03782e-19)
(-0.0777323 -0.0845325 5.59289e-19)
(-0.111733 -0.0722713 5.77851e-19)
(-0.150096 -0.0478547 1.37433e-19)
(-0.191879 -0.00257427 -1.28852e-19)
(-0.225867 0.0838165 -3.83695e-20)
(-0.188566 0.263753 -3.06226e-21)
(0.0542605 -0.0523308 0)
(0.0379001 -0.0603773 -4.892e-21)
(0.019957 -0.0671819 0)
(0.000389589 -0.0719616 -7.39501e-19)
(-0.0210422 -0.0739948 1.96043e-19)
(-0.0444811 -0.0723189 -5.92806e-19)
(-0.0699669 -0.0654257 0)
(-0.0971639 -0.0509976 -4.46126e-19)
(-0.124739 -0.0254936 2.35092e-19)
(-0.149028 0.0169335 -2.38055e-19)
(-0.15862 0.0868058 -9.42914e-20)
(-0.114274 0.194738 -3.34815e-20)
(-0.166424 0.0461777 -9.64642e-20)
(-0.113048 0.114786 -6.98881e-20)
(-0.0497431 0.131471 0)
(-0.00169247 0.122067 0)
(0.0305413 0.10218 1.96751e-19)
(0.0507742 0.0789007 -1.64862e-19)
(0.0624276 0.0552904 2.84364e-20)
(0.0679927 0.0326704 3.78891e-19)
(0.0691996 0.0116087 -1.1073e-19)
(0.0672737 -0.00752747 1.4954e-19)
(0.0632638 -0.0247921 -7.90922e-19)
(0.0586225 -0.0408873 0)
(-0.125177 0.032124 7.00669e-20)
(-0.0909145 0.0829329 6.15029e-20)
(-0.0458492 0.100921 -1.52152e-19)
(-0.00783734 0.0984707 -6.79844e-20)
(0.0198595 0.0856044 -1.84417e-19)
(0.0385396 0.0680286 0)
(0.0500847 0.0487469 -3.9428e-19)
(0.0562189 0.0292927 -1.51341e-19)
(0.0583452 0.0104529 -2.78916e-19)
(0.057688 -0.00725969 0)
(0.0558242 -0.0243709 6.52832e-19)
(0.0558816 -0.0427837 0)
(-0.0968878 0.0234177 4.83249e-20)
(-0.0742018 0.0617128 -1.68264e-19)
(-0.0414871 0.0787301 1.49117e-19)
(-0.0114306 0.0799336 7.30857e-20)
(0.0120957 0.0717178 -1.44949e-19)
(0.0288778 0.0584051 7.18647e-20)
(0.0398186 0.0426476 0)
(0.0460157 0.0259166 1.34184e-19)
(0.0485578 0.0090227 1.49345e-19)
(0.0486224 -0.00763919 1.65505e-19)
(0.0485443 -0.0258925 -9.65843e-19)
(0.0550412 -0.0502858 0)
(-0.0769309 0.0177508 -9.52093e-20)
(-0.0614078 0.0471421 2.60519e-19)
(-0.0371324 0.0622633 0)
(-0.0132205 0.0652954 -3.19572e-19)
(0.00654565 0.0601478 0)
(0.0213277 0.0500257 -1.58959e-19)
(0.0313504 0.0371272 -1.50669e-19)
(0.0372136 0.0227784 7.78605e-19)
(0.0396391 0.00772985 4.22911e-21)
(0.0394828 -0.00778353 -1.68967e-19)
(0.0393683 -0.0276477 9.23977e-19)
(0.0494822 -0.061491 -1.783e-18)
(0.0514554 -0.0470011 0)
(0.0339559 -0.0520081 -3.56375e-19)
(0.0166606 -0.0570544 0)
(-0.00139872 -0.0603439 1.78553e-19)
(-0.0207292 -0.0608894 1.8352e-19)
(-0.0412636 -0.0576654 9.69809e-19)
(-0.0627018 -0.0493117 3.02463e-19)
(-0.0841117 -0.0339321 -1.02155e-19)
(-0.103418 -0.00905664 2.13807e-19)
(-0.116175 0.0285439 1.02058e-20)
(-0.112516 0.082672 1.2166e-19)
(-0.0697102 0.148465 0)
(0.0533316 -0.0436208 2.01618e-19)
(0.0324892 -0.0443334 -3.77039e-19)
(0.0151313 -0.0477279 1.74433e-19)
(-0.00159461 -0.0499729 0)
(-0.0188723 -0.0496325 3.63124e-19)
(-0.0366582 -0.0456956 -3.76586e-19)
(-0.0544597 -0.037005 -7.72734e-19)
(-0.0711598 -0.0221777 0)
(-0.0845497 0.000301222 -2.0978e-19)
(-0.0906171 0.0318044 8.73607e-21)
(-0.0820909 0.0724824 -2.64517e-20)
(-0.0460113 0.114389 2.65515e-20)
(0.0607922 -0.0417999 0)
(0.0328354 -0.0367722 -1.543e-20)
(0.0142803 -0.039104 -7.14147e-19)
(-0.00136843 -0.0408647 7.01578e-19)
(-0.0167751 -0.0401368 -3.56496e-19)
(-0.0321118 -0.0360147 -1.84209e-19)
(-0.0468432 -0.0275958 4.65592e-19)
(-0.0598467 -0.013959 3.77014e-19)
(-0.0690715 0.00568007 9.70801e-20)
(-0.0712115 0.0315326 2.04787e-19)
(-0.0611107 0.0620965 0)
(-0.0317165 0.0899143 4.71045e-20)
(0.0719982 -0.0344159 -1.95077e-18)
(0.0332313 -0.0276662 7.22516e-19)
(0.0131834 -0.0306901 1.64703e-18)
(-0.00120185 -0.0327254 -8.66709e-19)
(-0.0147888 -0.0320582 -5.22414e-19)
(-0.0279306 -0.0281056 -5.26194e-19)
(-0.040106 -0.0202943 -1.78639e-19)
(-0.0502449 -0.00808784 -3.72307e-19)
(-0.0565723 0.00877422 0)
(-0.0564665 0.0298423 4.74792e-20)
(-0.0464208 0.0530397 -4.74893e-20)
(-0.0227385 0.0722292 -9.07419e-20)
(-0.062462 0.0138932 -4.34549e-22)
(-0.0514428 0.0368122 -1.7245e-19)
(-0.0330827 0.0499173 0)
(-0.0139782 0.0537028 2.33732e-19)
(0.00257888 0.0505618 4.02189e-19)
(0.0154298 0.0428334 1.47759e-19)
(0.0243916 0.0322685 1.55871e-19)
(0.029682 0.0200582 -6.1257e-19)
(0.0316075 0.00697705 0)
(0.0304939 -0.00647748 -5.45089e-19)
(0.0277349 -0.024476 8.65343e-19)
(0.0250359 -0.0590239 4.48866e-18)
(-0.0516983 0.0111463 9.32375e-20)
(-0.0436441 0.0292982 0)
(-0.0294809 0.0404866 3.43482e-19)
(-0.0140911 0.0444706 0)
(-0.000261756 0.0426609 1.32183e-20)
(0.0108135 0.0367309 6.5214e-19)
(0.018705 0.0280871 1.59401e-19)
(0.0233595 0.0177859 -8.08259e-19)
(0.0247968 0.00665524 0)
(0.0230986 -0.00452985 5.40354e-19)
(0.0198168 -0.0193893 -9.26736e-19)
(0.0133437 -0.0382505 0)
(-0.0435222 0.00911282 -4.58888e-20)
(-0.0374556 0.0236938 1.78025e-19)
(-0.0263613 0.0332127 -3.36756e-19)
(-0.0138837 0.0370985 4.2189e-19)
(-0.00231186 0.0361516 -1.5361e-19)
(0.00718861 0.0315887 -3.95223e-19)
(0.0140788 0.0245193 -9.80871e-19)
(0.0181432 0.015894 7.97682e-19)
(0.019253 0.00655246 0)
(0.0175131 -0.00253562 -5.53357e-19)
(0.0149102 -0.01332 -3.11955e-19)
(0.0126558 -0.0213519 0)
(-0.0371931 0.00755711 -2.23712e-20)
(-0.0325302 0.0194272 -1.9562e-19)
(-0.0236909 0.0275246 4.34538e-20)
(-0.0134861 0.0311863 8.86373e-21)
(-0.00380012 0.0308016 -3.27554e-19)
(0.00433931 0.027287 0)
(0.0103295 0.0215001 8.0708e-19)
(0.0138856 0.0143174 -1.63131e-19)
(0.0147985 0.0065353 0)
(0.0132153 -0.000781997 1.44086e-18)
(0.0111588 -0.0083231 0)
(0.0132008 -0.00901178 0)
(-0.0322536 0.0063348 -8.99758e-20)
(-0.0285818 0.0161266 0)
(-0.0214458 0.0230589 2.61195e-19)
(-0.013044 0.0264484 -3.33537e-19)
(-0.00490066 0.0264009 8.73704e-22)
(0.00208358 0.0237018 7.5434e-19)
(0.00728968 0.0189446 -1.63808e-19)
(0.0104287 0.012985 -4.96008e-19)
(0.0112373 0.00652085 1.63079e-19)
(0.00990809 0.000630954 -7.07676e-19)
(0.00830905 -0.00460926 -5.85347e-19)
(0.0127618 -0.00136323 1.85317e-18)
(-0.0284736 0.00535838 8.84894e-20)
(-0.0255339 0.013559 0)
(-0.0196607 0.0195469 -3.40912e-19)
(-0.012672 0.022674 8.46437e-20)
(-0.00578528 0.0228212 -8.46436e-20)
(0.000260798 0.0207516 -8.26521e-19)
(0.00481205 0.016807 6.6981e-19)
(0.00763586 0.0118623 8.14067e-19)
(0.00840384 0.00647755 0)
(0.00736738 0.00172378 1.74612e-19)
(0.00617956 -0.00195625 -2.84549e-19)
(0.0117307 0.00320383 0)
(-0.0259867 0.00458116 2.2161e-20)
(-0.0235547 0.0115904 -1.99274e-19)
(-0.0185898 0.016863 0)
(-0.0126692 0.0197387 0)
(-0.00670297 0.0200053 0)
(-0.00135142 0.018395 -1.69912e-19)
(0.00273185 0.0150783 -4.99891e-19)
(0.00536538 0.0109304 -6.74433e-19)
(0.00616615 0.00639984 1.65387e-19)
(0.00543718 0.00252031 -2.68385e-21)
(0.0046055 -8.60758e-05 -2.50507e-18)
(0.0103748 0.00590151 -1.39377e-17)
(-0.0254332 0.00398704 9.53468e-20)
(-0.0233153 0.010183 2.35914e-19)
(-0.0188714 0.0149301 -4.72777e-20)
(-0.0136013 0.0176367 9.35222e-20)
(-0.00815492 0.0179634 5.63488e-19)
(-0.00313687 0.0166718 6.53366e-19)
(0.000761214 0.0137866 -7.34801e-19)
(0.00341725 0.0102152 1.6298e-18)
(0.00436301 0.00629998 0)
(0.00396099 0.00307375 0)
(0.00342898 0.00122111 1.98066e-18)
(0.00883547 0.00734796 1.58848e-18)
(-0.0282243 0.00358142 -1.15468e-19)
(-0.0261752 0.00936937 -5.76732e-20)
(-0.0217531 0.0138618 5.77621e-20)
(-0.0166266 0.0163741 0)
(-0.0110664 0.0168803 -1.82738e-18)
(-0.00586617 0.0156399 -1.13024e-18)
(-0.00162032 0.0131071 8.96898e-19)
(0.00138427 0.00975694 -8.81176e-19)
(0.00274237 0.00628354 2.21625e-19)
(0.0027217 0.00343542 2.26693e-19)
(0.00250576 0.00217772 -3.26826e-19)
(0.00712924 0.0079876 1.39932e-17)
(-0.037013 0.00339146 -1.72633e-19)
(-0.0346699 0.00933802 0)
(-0.0295928 0.0138664 -6.89743e-19)
(-0.0237956 0.0162665 1.71788e-19)
(-0.0171928 0.0170768 1.02668e-18)
(-0.0109128 0.0156564 -1.68077e-19)
(-0.00544258 0.0133341 -6.73872e-19)
(-0.00146773 0.00982108 2.32865e-18)
(0.000790296 0.00653571 -2.30801e-18)
(0.00131426 0.00378286 -5.45452e-21)
(0.00150021 0.00292006 -4.45756e-19)
(0.00500722 0.00792731 0)
(-0.0555371 0.00339109 2.71734e-19)
(-0.0523751 0.0102702 -1.17775e-18)
(-0.0456014 0.0151574 2.71405e-18)
(-0.0380117 0.0177662 0)
(-0.0291431 0.0188743 -3.59064e-19)
(-0.0204093 0.0173004 3.5898e-19)
(-0.0125412 0.0148814 2.12982e-18)
(-0.0065247 0.0109811 -1.04845e-17)
(-0.00271399 0.00751457 5.52474e-18)
(-0.00121903 0.00465163 0)
(-0.000367873 0.00387983 0)
(0.00228834 0.00744353 0)
(-0.0788732 0.00335922 2.77209e-18)
(-0.0747976 0.0111339 5.53099e-18)
(-0.0656992 0.0163833 -1.1049e-17)
(-0.0561718 0.019268 1.3773e-18)
(-0.0452628 0.0209065 -2.75669e-18)
(-0.0344528 0.0196254 -6.87227e-18)
(-0.0245557 0.0177226 -5.44266e-18)
(-0.0166756 0.0140652 2.72336e-18)
(-0.0113482 0.011058 -1.86121e-17)
(-0.00866106 0.00844793 -2.67047e-18)
(-0.0060452 0.00715417 0)
(-0.00220652 0.00764992 -4.92023e-17)
(0.0695882 -0.00691629 4.88239e-18)
(0.028826 -0.0173588 1.22312e-18)
(0.0107516 -0.0228365 -7.50235e-19)
(-0.001439 -0.0255904 -8.58607e-19)
(-0.0130897 -0.0252286 8.51718e-19)
(-0.0242417 -0.021635 8.6483e-19)
(-0.0342836 -0.014571 -8.53551e-20)
(-0.0422138 -0.00381877 -1.77595e-19)
(-0.0465276 0.0105334 8.9471e-20)
(-0.045209 0.0277005 0)
(-0.0359145 0.0455175 0)
(-0.0168738 0.0592259 1.0989e-21)
(0.0498856 0.00494213 0)
(0.0228115 -0.0116697 8.40388e-21)
(0.00795162 -0.016844 0)
(-0.0019224 -0.0197259 6.7459e-19)
(-0.0116904 -0.0195687 -1.67317e-19)
(-0.0210675 -0.0163671 3.35553e-19)
(-0.0293311 -0.0100741 -9.28471e-19)
(-0.0355563 -0.000693182 8.52606e-20)
(-0.0384771 0.0114769 0)
(-0.0365588 0.0255052 -3.43535e-19)
(-0.0282733 0.0393998 0)
(-0.0128985 0.0494899 8.27651e-20)
(0.0335636 0.00329165 0)
(0.0162567 -0.00872085 -1.62617e-18)
(0.00542641 -0.0125768 1.88717e-19)
(-0.00242669 -0.0150784 0)
(-0.010523 -0.0149564 6.50451e-19)
(-0.0183554 -0.0120952 1.63943e-19)
(-0.0251442 -0.00652277 5.80133e-19)
(-0.030051 0.00162763 -4.95294e-19)
(-0.0320051 0.0119399 8.31445e-20)
(-0.0298526 0.0234658 6.67061e-19)
(-0.0226088 0.0344318 1.62995e-19)
(-0.0101132 0.0420578 -4.01752e-20)
(0.0213031 0.000820015 -7.91924e-18)
(0.0110992 -0.00640913 0)
(0.00338625 -0.00936223 0)
(-0.00285056 -0.0114055 8.09015e-19)
(-0.0095299 -0.0112263 -7.96778e-19)
(-0.0160494 -0.00864827 1.59455e-19)
(-0.0216238 -0.00371954 -1.59423e-19)
(-0.0255124 0.00335242 3.23105e-19)
(-0.0267972 0.0121084 3.1952e-19)
(-0.0246183 0.0216362 -5.48598e-21)
(-0.0183506 0.0304243 -1.59804e-19)
(-0.00810332 0.036309 3.82869e-20)
(0.0131032 -0.000589234 7.57829e-18)
(0.00732111 -0.00464737 0)
(0.00181643 -0.00691402 1.75202e-19)
(-0.00315678 -0.0085062 -1.42473e-18)
(-0.00866333 -0.0082203 0)
(-0.0140877 -0.00586397 -7.73705e-19)
(-0.0186679 -0.00148496 8.51484e-19)
(-0.0217765 0.00466741 -6.96558e-19)
(-0.022591 0.012133 -2.3577e-19)
(-0.0205139 0.0200741 -6.97233e-19)
(-0.0151045 0.0271878 0)
(-0.0066207 0.0318227 -7.46964e-20)
(0.00766734 -0.00134462 1.79273e-18)
(0.00462758 -0.00337178 -1.40905e-18)
(0.000659262 -0.00504393 0)
(-0.00335256 -0.00622887 1.37781e-21)
(-0.00789853 -0.0058028 0)
(-0.0124398 -0.0036158 1.55175e-19)
(-0.016213 0.00032467 -7.60251e-19)
(-0.0187318 0.00571994 5.33301e-19)
(-0.0192204 0.0121551 3.75989e-19)
(-0.0172995 0.0188535 3.02551e-19)
(-0.0126225 0.0247145 -1.47553e-19)
(-0.00550699 0.0284269 3.65478e-20)
(0.00402629 -0.00168825 0)
(0.00274454 -0.00248612 3.26531e-18)
(-0.000160606 -0.00364249 1.52483e-18)
(-0.00345026 -0.00445749 4.64203e-19)
(-0.00724915 -0.00385817 0)
(-0.0111071 -0.00174585 7.57101e-19)
(-0.0142617 0.00190404 -7.56764e-20)
(-0.0163483 0.00676501 -2.69989e-22)
(-0.0166264 0.0124486 -3.75901e-19)
(-0.0148622 0.0182628 0)
(-0.0107693 0.0232055 1.59574e-21)
(-0.00467517 0.0262799 1.06418e-27)
(0.0016634 -0.00175947 -1.33106e-17)
(0.00145809 -0.00190061 -4.68279e-18)
(-0.000702922 -0.00261156 -1.24978e-18)
(-0.00349939 -0.00308557 -1.31351e-18)
(-0.00675803 -0.00222463 0)
(-0.0101545 -2.36694e-05 1.59913e-19)
(-0.01287 0.00359943 -2.39433e-19)
(-0.0146788 0.00825884 4.19543e-22)
(-0.0148113 0.0135963 7.91186e-20)
(-0.0131743 0.0189531 0)
(-0.00946739 0.0233954 1.55747e-19)
(-0.00411906 0.0260984 7.61697e-20)
(8.69481e-05 -0.0016284 3.73891e-20)
(0.000634608 -0.00151424 2.47857e-18)
(-0.00109879 -0.00185544 0)
(-0.0035311 -0.00189361 1.97877e-19)
(-0.00658594 -0.000630629 -1.52059e-21)
(-0.00966927 0.00204716 -7.77152e-19)
(-0.0122607 0.00606562 6.74266e-19)
(-0.0138505 0.0111341 -8.61378e-19)
(-0.0139675 0.0167285 0)
(-0.0123229 0.0222904 -3.76792e-19)
(-0.00883406 0.0267596 0)
(-0.00380914 0.0294517 -1.84197e-19)
(-0.000783815 -0.001408 1.48708e-17)
(6.86797e-05 -0.00117713 -4.16118e-19)
(-0.00149933 -0.00119119 3.11472e-18)
(-0.00376297 -0.000554092 2.06509e-18)
(-0.00701699 0.00146716 -2.04718e-18)
(-0.0100283 0.00530406 1.15364e-18)
(-0.0128753 0.0105441 -2.85502e-19)
(-0.014339 0.0170521 9.97655e-19)
(-0.0145385 0.0239964 1.42044e-19)
(-0.0127107 0.0308397 1.05364e-18)
(-0.00907382 0.036229 -2.07748e-19)
(-0.00385765 0.0394333 1.36993e-19)
(-0.00131214 -0.000794416 0)
(-0.000587018 -0.000619569 0)
(-0.00220393 -5.63777e-05 -5.12848e-18)
(-0.0046873 0.0015701 0)
(-0.00844013 0.00509768 5.50887e-18)
(-0.0119037 0.011091 -6.08658e-18)
(-0.0152998 0.0189542 -1.50519e-18)
(-0.016948 0.0285015 2.09959e-18)
(-0.0172057 0.038569 0)
(-0.0150261 0.0484207 2.07617e-21)
(-0.0105965 0.0561724 1.74527e-18)
(-0.00444161 0.0608189 0)
(-0.00199882 0.000723207 -4.08276e-17)
(-0.00212771 0.00148355 -2.71998e-17)
(-0.00415971 0.00317936 2.42841e-18)
(-0.00668824 0.00603645 0)
(-0.010769 0.0112772 -2.35881e-18)
(-0.0144975 0.0197585 2.34888e-17)
(-0.0183814 0.0307413 -2.33964e-18)
(-0.0201736 0.0440922 -1.0407e-17)
(-0.020514 0.058258 1.15381e-18)
(-0.0179643 0.0724129 -4.54125e-18)
(-0.0126449 0.0838529 -8.95183e-18)
(-0.00531534 0.0911466 1.10303e-18)
)
;

boundaryField
{
    rotor
    {
        type            fixedValue;
        value           nonuniform List<vector> 
48
(
(0.201784 -0.00660572 0)
(0.20092 -0.0197889 0)
(0.199195 -0.0328873 0)
(0.196618 -0.0458448 0)
(0.193198 -0.0586061 0)
(0.188952 -0.0711164 0)
(0.183896 -0.0833222 0)
(0.178053 -0.0951712 0)
(0.171447 -0.106613 0)
(0.164107 -0.117597 0)
(0.156065 -0.128079 0)
(0.147354 -0.138012 0)
(0.138012 -0.147354 0)
(0.128079 -0.156065 0)
(0.117597 -0.164107 0)
(0.106613 -0.171447 0)
(0.0951712 -0.178053 0)
(0.0833222 -0.183896 0)
(0.0711164 -0.188952 0)
(0.0586061 -0.193198 0)
(0.0458448 -0.196618 0)
(0.0328873 -0.199195 0)
(0.0197889 -0.20092 0)
(0.00660572 -0.201784 0)
(0.214625 3.8523e-10 -0)
(0.239875 4.30551e-10 -0)
(0.265125 4.75872e-10 -0)
(0.290375 5.21193e-10 -0)
(0.315625 5.66514e-10 -0)
(0.340875 6.11835e-10 -0)
(0.366125 6.57157e-10 -0)
(0.391375 7.02478e-10 -0)
(0.416625 7.47799e-10 -0)
(0.441875 7.9312e-10 -0)
(0.467125 8.38441e-10 -0)
(0.492375 8.83762e-10 -0)
(-7.70459e-10 -0.214625 0)
(-8.61102e-10 -0.239875 0)
(-9.51744e-10 -0.265125 0)
(-1.04239e-09 -0.290375 0)
(-1.13303e-09 -0.315625 0)
(-1.22367e-09 -0.340875 0)
(-1.31431e-09 -0.366125 0)
(-1.40496e-09 -0.391375 0)
(-1.4956e-09 -0.416625 0)
(-1.58624e-09 -0.441875 0)
(-1.67688e-09 -0.467125 0)
(-1.76752e-09 -0.492375 0)
)
;
    }
    stator
    {
        type            noSlip;
    }
    front
    {
        type            empty;
    }
    back
    {
        type            empty;
    }
    procBoundary0to1
    {
        type            processor;
        value           nonuniform List<vector> 
20
(
(-0.326487 -0.834002 -2.04518e-19)
(-0.364514 -0.32963 -1.25808e-27)
(-0.272082 -0.182613 -4.37813e-20)
(-0.200554 -0.108407 -3.21003e-20)
(-0.152737 -0.0642391 -5.8092e-20)
(-0.117566 -0.0411167 1.4939e-19)
(-0.0922641 -0.0273692 8.02378e-20)
(-0.0739198 -0.0188653 -2.36611e-19)
(-0.060385 -0.0134094 1.01895e-19)
(-0.0501983 -0.00978645 4.89885e-20)
(-0.0423973 -0.00731252 -7.2226e-20)
(-0.0363294 -0.00558593 0)
(-0.031577 -0.00436365 -1.14679e-19)
(-0.0279467 -0.00350105 -2.25775e-20)
(-0.0255759 -0.00291559 9.02881e-20)
(-0.0251053 -0.00257171 -1.20283e-19)
(-0.0279246 -0.00248191 1.16588e-19)
(-0.0366517 -0.00278076 0)
(-0.0548526 -0.00370175 0)
(-0.0769863 -0.00468398 1.40671e-18)
)
;
    }
    procBoundary0to2
    {
        type            processor;
        value           nonuniform List<vector> 
20
(
(0.266039 0.535242 1.5621e-19)
(0.174592 0.441148 2.90445e-20)
(0.092443 0.312533 -1.54805e-20)
(0.0542504 0.22323 -8.81314e-20)
(0.0385068 0.162689 8.38766e-20)
(0.0255933 0.122322 -1.92516e-20)
(0.017772 0.094697 8.27103e-20)
(0.0127972 0.0752771 -1.61885e-19)
(0.00951171 0.0612619 3.97572e-20)
(0.00724808 0.0508799 3.87278e-20)
(0.00563326 0.0430364 -3.76945e-20)
(0.00444079 0.0369927 7.37771e-20)
(0.00355477 0.0323057 -7.2092e-20)
(0.00288604 0.0287515 3.53924e-20)
(0.00238513 0.0264898 1.06251e-27)
(0.00206656 0.0262037 7.45816e-20)
(0.00192591 0.0294577 -1.80327e-19)
(0.00209558 0.0393155 1.34238e-19)
(0.00268465 0.0606145 0)
(0.00339851 0.0914699 2.11701e-18)
)
;
    }
}


// ************************************************************************* //
