/*--------------------------------*- C++ -*----------------------------------*\
  =========                 |
  \\      /  F ield         | OpenFOAM: The Open Source CFD Toolbox
   \\    /   O peration     | Website:  https://openfoam.org
    \\  /    A nd           | Version:  6
     \\/     M anipulation  |
\*---------------------------------------------------------------------------*/
FoamFile
{
    version     2.0;
    format      ascii;
    class       volScalarField;
    location    "1000";
    object      epsilon;
}
// * * * * * * * * * * * * * * * * * * * * * * * * * * * * * * * * * * * * * //

dimensions      [0 2 -3 0 0 0 0];

internalField   nonuniform List<scalar> 
768
(
493.518
288.599
293.099
294.153
294.419
294.472
294.504
294.514
294.528
294.51
294.544
294.539
448.556
134.46
81.7234
65.4088
60.0855
58.1847
57.4184
57.0272
56.8107
56.682
56.6497
56.6293
405.874
108.812
48.7304
31.8692
27.0266
25.6233
25.2224
25.107
25.07
25.0698
25.0878
25.0841
370.211
100.047
41.7486
26.1747
21.9605
20.8386
20.5522
20.4789
20.4614
20.4614
20.4627
20.4638
340.664
92.8807
38.5481
24.5221
20.8956
19.971
19.7458
19.6934
19.6824
19.6821
19.6803
19.6797
315.491
86.5817
36.2122
23.6411
20.5111
19.7471
19.5702
19.5307
19.5256
19.5243
19.5206
19.5208
294.334
81.1669
34.2921
22.9878
20.2807
19.645
19.4985
19.4734
19.4716
19.47
19.4624
19.4613
275.579
76.3411
32.6978
22.4718
20.1084
19.5728
19.4527
19.4334
19.435
19.4303
19.4242
19.4204
259.316
72.4042
31.4411
22.0769
19.9706
19.5114
19.4117
19.3985
19.402
19.3925
19.3897
19.3888
246.048
69.955
30.5565
21.7742
19.8664
19.4616
19.3731
19.3626
19.3685
19.3628
19.3544
19.3557
233.312
69.0269
29.8408
21.51
19.7798
19.4173
19.3389
19.3306
19.3351
19.3379
19.3402
19.3369
226.297
63.8127
27.9515
21.0623
19.655
19.3685
19.3069
19.3039
19.3152
19.3147
19.3069
19.3081
294.552
294.536
294.522
294.535
294.552
294.534
294.523
294.51
294.507
294.454
289.189
489.914
56.6403
56.6612
56.6863
56.7281
56.7486
56.7648
56.7375
57.1274
60.7022
78.8433
140.578
447.122
25.0904
25.1173
25.1352
25.1324
25.1344
25.1446
25.1324
25.5671
28.7168
44.6479
103.107
405.114
20.4664
20.4719
20.4753
20.4742
20.4755
20.4814
20.4826
20.8143
23.2736
36.9846
90.3072
369.625
19.6808
19.6809
19.681
19.6831
19.6834
19.6845
19.6884
19.9335
21.9202
33.7615
81.8426
339.947
19.5218
19.5174
19.5151
19.5162
19.5176
19.5197
19.5246
19.701
21.3451
31.5192
75.3772
314.977
19.465
19.4653
19.462
19.4602
19.4596
19.4661
19.4672
19.6048
20.9284
29.7714
69.7134
293.777
19.4212
19.4258
19.4221
19.4203
19.4225
19.4286
19.4351
19.5384
20.6117
28.2709
65.2178
275.316
19.3861
19.3922
19.3894
19.3843
19.3854
19.3939
19.4021
19.4825
20.3551
26.9792
60.8098
259.4
19.3569
19.3605
19.3639
19.3621
19.3614
19.3639
19.3704
19.4354
20.1406
25.7367
56.9168
245.073
19.3299
19.3325
19.3294
19.3293
19.3327
19.3383
19.3405
19.3904
19.9705
24.6885
52.9359
232.489
19.303
19.3
19.3019
19.3083
19.3122
19.3077
19.3064
19.3468
19.7904
23.5515
47.9457
223.534
61.7741
34.8449
23.3425
20.2137
19.4838
19.3174
19.2843
19.2804
19.2878
19.289
19.2795
19.2813
30.0984
24.0415
20.7608
19.654
19.3483
19.2717
19.2562
19.253
19.2591
19.2622
19.2577
19.2638
22.0217
20.6415
19.7358
19.3879
19.2757
19.2456
19.2278
19.2356
19.2511
19.2469
19.2407
19.2475
19.9479
19.6225
19.3733
19.2703
19.2273
19.2208
19.211
19.2111
19.2273
19.2259
19.2187
19.2238
19.286
19.2819
19.2803
19.2863
19.2851
19.2813
19.2826
19.3033
19.529
21.2463
31.7633
88.8576
19.2638
19.2593
19.2571
19.2658
19.2677
19.2657
19.2766
19.2788
19.3661
19.9721
23.3249
34.8278
19.2481
19.2398
19.2325
19.2413
19.2462
19.2406
19.2504
19.259
19.2904
19.4781
20.3924
22.8822
19.2138
19.1967
19.1945
19.2032
19.2103
19.2135
19.2285
19.2233
19.2356
19.2943
19.5295
20.099
19.3958
19.3011
19.2348
19.2048
19.1908
19.1876
19.1833
19.1818
19.1852
19.1841
19.1827
19.3399
19.2395
19.2001
19.1806
19.1707
19.1653
19.1641
19.1617
19.1611
19.1617
19.1611
19.3786
20.5392
19.1849
19.16
19.153
19.1491
19.1459
19.1447
19.1436
19.1434
19.1436
19.2478
20.5082
26.7695
19.1583
19.1365
19.1327
19.1306
19.1291
19.1283
19.1275
19.1274
19.1479
19.5839
24.4473
49.8417
19.3818
19.2233
19.183
19.1785
19.1805
19.1849
19.1891
19.1857
19.1907
19.2104
19.2795
19.4129
20.6475
19.5229
19.2145
19.1663
19.1605
19.1615
19.1624
19.1625
19.1645
19.1717
19.1911
19.2239
27.3916
20.9242
19.397
19.1723
19.1449
19.143
19.1428
19.1442
19.1449
19.147
19.1531
19.1637
51.7131
24.6591
19.8373
19.2047
19.1338
19.1267
19.1267
19.1272
19.1279
19.1284
19.1306
19.136
19.1393
19.1184
19.1155
19.1148
19.1144
19.1138
19.1129
19.1141
19.1704
20.1943
32.046
155.647
19.124
19.1037
19.1011
19.1011
19.1005
19.0998
19.099
19.1009
19.169
20.3644
33.3487
148.748
19.1103
19.0907
19.0885
19.0883
19.088
19.0871
19.0867
19.0886
19.1535
20.3064
32.7947
143.803
19.0979
19.0786
19.0766
19.0763
19.0766
19.0758
19.0754
19.0769
19.134
20.1825
31.8721
139.48
19.0867
19.0678
19.0659
19.0654
19.066
19.0654
19.0649
19.066
19.1146
20.0523
30.9471
135.46
19.076
19.0576
19.0557
19.0554
19.0559
19.0555
19.0549
19.056
19.0973
19.9329
30.0856
131.681
19.0663
19.0483
19.0464
19.0463
19.0467
19.0466
19.046
19.0468
19.0818
19.8266
29.3013
128.124
19.5595
19.6153
19.621
19.6218
19.6224
19.6224
19.6218
19.6218
19.6514
20.332
29.2269
124.762
22.4942
22.6069
22.6207
22.6255
22.6265
22.6273
22.6266
22.6237
22.6523
23.3103
31.5922
121.56
34.6077
34.9127
34.958
34.98
34.9797
34.9815
34.9721
34.9574
34.9677
35.4566
42.1541
118.46
72.3997
72.6708
72.7095
72.788
72.7695
72.7704
72.7247
72.6558
72.6334
72.7465
75.4964
110.756
249.059
248.371
248.249
248.233
248.266
248.241
248.23
248.211
248.209
248.189
247.551
240.9
155.738
31.6808
20.4315
19.2457
19.124
19.1124
19.112
19.112
19.1128
19.1126
19.1138
19.1176
148.875
32.9765
20.5914
19.2505
19.1123
19.0996
19.0989
19.0991
19.099
19.0988
19.0994
19.1029
143.906
32.5181
20.5274
19.2313
19.0993
19.0873
19.0864
19.0872
19.0868
19.0863
19.0864
19.0897
139.556
31.6873
20.3923
19.2037
19.0862
19.0757
19.0749
19.0762
19.0758
19.0751
19.0747
19.0777
135.534
30.8276
20.248
19.1757
19.0738
19.065
19.0642
19.0655
19.0652
19.064
19.0637
19.0667
131.753
30.0118
20.1137
19.1499
19.0624
19.0552
19.0545
19.0556
19.0552
19.0542
19.054
19.0569
128.187
29.255
19.9932
19.1269
19.0516
19.046
19.0453
19.0464
19.0453
19.0451
19.045
19.0475
124.818
29.1131
20.4755
19.6884
19.6214
19.6163
19.6153
19.6158
19.6148
19.6149
19.615
19.6182
121.628
31.4263
23.4152
22.6738
22.608
22.6021
22.5971
22.5994
22.5937
22.6001
22.599
22.5866
118.575
41.8537
35.4953
34.9243
34.8645
34.8537
34.8403
34.8384
34.8379
34.8504
34.853
34.8481
111.266
75.2915
72.6508
72.4029
72.3585
72.3493
72.3261
72.3273
72.3209
72.4159
72.4013
72.3915
241.631
247.604
248.156
248.205
248.229
248.261
248.305
248.293
248.313
248.378
248.402
248.472
)
;

boundaryField
{
    rotor
    {
        Cmu             0.09;
        kappa           0.41;
        E               9.8;
        type            epsilonWallFunction;
        value           nonuniform List<scalar> 
48
(
493.518
288.599
293.099
294.153
294.419
294.472
294.504
294.514
294.528
294.51
294.544
294.539
294.552
294.536
294.522
294.535
294.552
294.534
294.523
294.51
294.507
294.454
289.189
489.914
493.518
448.556
405.874
370.211
340.664
315.491
294.334
275.579
259.316
246.048
233.312
226.297
489.914
447.122
405.114
369.625
339.947
314.977
293.777
275.316
259.4
245.073
232.489
223.534
)
;
    }
    stator
    {
        Cmu             0.09;
        kappa           0.41;
        E               9.8;
        type            epsilonWallFunction;
        value           nonuniform List<scalar> 
48
(
249.059
248.371
248.249
248.233
248.266
248.241
248.23
248.211
248.209
248.189
247.551
240.9
241.631
247.604
248.156
248.205
248.229
248.261
248.305
248.293
248.313
248.378
248.402
248.472
155.738
148.875
143.906
139.556
135.534
131.753
128.187
124.818
121.628
118.575
111.266
241.631
155.647
148.748
143.803
139.48
135.46
131.681
128.124
124.762
121.56
118.46
110.756
240.9
)
;
    }
    front
    {
        type            empty;
    }
    back
    {
        type            empty;
    }
    procBoundary2to0
    {
        type            processor;
        value           nonuniform List<scalar> 
20
(
88.6589
34.8429
22.8537
20.0857
19.4087
19.2234
19.1642
19.1368
19.1178
19.1035
19.0902
19.0783
19.0673
19.0577
19.048
19.619
22.5879
34.8473
72.3817
248.402
)
;
    }
    procBoundary2to3
    {
        type            processor;
        value           nonuniform List<scalar> 
20
(
61.819
30.0679
22.0401
19.9545
19.3979
19.2387
19.1835
19.1573
19.1383
19.1226
19.1092
19.0969
19.0856
19.075
19.0656
19.5594
22.4949
34.6063
72.4004
249.065
)
;
    }
}


// ************************************************************************* //
