/*--------------------------------*- C++ -*----------------------------------*\
  =========                 |
  \\      /  F ield         | OpenFOAM: The Open Source CFD Toolbox
   \\    /   O peration     | Website:  https://openfoam.org
    \\  /    A nd           | Version:  6
     \\/     M anipulation  |
\*---------------------------------------------------------------------------*/
FoamFile
{
    version     2.0;
    format      ascii;
    class       volScalarField;
    location    "1000";
    object      p;
}
// * * * * * * * * * * * * * * * * * * * * * * * * * * * * * * * * * * * * * //

dimensions      [0 2 -2 0 0 0 0];

internalField   nonuniform List<scalar> 
768
(
0.408082
0.910585
1.59205
2.30219
3.03778
3.77473
4.50979
5.23309
5.95049
6.65719
7.36052
8.05658
0.269454
0.846703
1.54001
2.26706
3.02683
3.78486
4.5295
5.25644
5.97082
6.67296
7.36823
8.05694
0.129084
0.752571
1.45906
2.19898
2.98827
3.77833
4.54413
5.28181
5.99676
6.69377
7.3788
8.05579
0.0642132
0.729599
1.45527
2.21342
3.02351
3.82997
4.60393
5.3415
6.04872
6.73249
7.40013
8.05773
0.0881224
0.797893
1.54722
2.32738
3.15023
3.95717
4.72268
5.44519
6.13256
6.79275
7.43452
8.06481
0.202501
0.95693
1.72954
2.52816
3.35246
4.14665
4.88947
5.58517
6.24204
6.87068
7.47938
8.07667
0.409189
1.20832
2.00148
2.80847
3.62168
4.38757
5.09595
5.75327
6.37183
6.96153
7.53231
8.09168
0.716718
1.55954
2.36493
3.16692
3.94997
4.67281
5.33309
5.94312
6.51557
7.06161
7.5902
8.10886
1.13681
2.02012
2.8246
3.5989
4.33001
4.992
5.59249
6.14667
6.66791
7.16664
7.65097
8.12727
1.70753
2.61782
3.38782
4.09918
4.75052
5.33384
5.86377
6.35604
6.82278
7.27267
7.7122
8.1462
2.49541
3.38911
4.05784
4.65558
5.19603
5.6846
6.1363
6.56349
6.97479
7.37614
7.77189
8.16493
3.71542
4.3764
4.82477
5.24363
5.64495
6.02866
6.39942
6.76184
7.11911
7.47391
7.82814
8.18266
8.75345
9.44828
10.1486
10.8516
11.5645
12.2839
13.0154
13.7536
14.4921
15.2071
15.8843
16.3843
8.74466
9.43209
10.1245
10.8224
11.5315
12.2531
12.993
13.7519
14.5201
15.256
15.9473
16.5214
8.73023
9.40569
10.0873
10.7787
11.4863
12.2155
12.9738
13.7656
14.571
15.3268
16.0358
16.6574
8.71169
9.3675
10.0314
10.7088
11.4076
12.1348
12.9
13.7079
14.5383
15.3181
16.0516
16.7165
8.69113
9.31972
9.95765
10.6117
11.2901
12.0018
12.7572
13.5638
14.4065
15.2122
15.9724
16.6821
8.66952
9.26521
9.87053
10.4931
11.1413
11.8255
12.557
13.3476
14.1884
15.0118
15.7928
16.5478
8.64724
9.20527
9.77302
10.3572
10.9671
11.6124
12.3076
13.0652
13.8859
14.7137
15.5128
16.308
8.624
9.14154
9.66742
10.2084
10.7722
11.3699
12.0144
12.7229
13.5054
14.319
15.1207
15.9545
8.60078
9.07609
9.558
10.0519
10.5648
11.1061
11.6893
12.3322
13.0501
13.8224
14.6074
15.4663
8.57823
9.01133
9.44862
9.89395
10.3527
10.8325
11.3446
11.9055
12.5354
13.2263
13.9475
14.8048
8.55696
8.94913
9.34273
9.73992
10.1439
10.5598
10.9952
11.4618
11.9748
12.5387
13.127
13.8839
8.53726
8.89088
9.24303
9.5941
9.94513
10.2982
10.6558
11.0216
11.3997
11.7821
12.1345
12.5854
6.16492
5.57603
5.62019
5.81462
6.06921
6.35005
6.64395
6.94549
7.25237
7.56391
7.87979
8.19907
7.31326
6.4781
6.27441
6.30426
6.44192
6.6362
6.86318
7.11058
7.37212
7.6445
7.9257
8.21347
7.76731
7.05173
6.76264
6.6978
6.75448
6.88233
7.05443
7.25567
7.4775
7.71507
7.96547
8.22578
7.97411
7.40924
7.11555
7.00501
7.00997
7.08932
7.218
7.38078
7.56832
7.77532
7.99841
8.23484
8.51955
8.83777
9.15157
9.45975
9.76159
10.0561
10.3409
10.6106
10.8507
11.0242
11.0076
10.3718
8.50401
8.79056
9.06958
9.33894
9.59657
9.83919
10.061
10.2503
10.384
10.4114
10.2154
9.49534
8.49121
8.74989
8.99779
9.2326
9.45143
9.64978
9.81991
9.94788
10.0082
9.95546
9.70198
9.07823
8.48188
8.71632
8.93647
9.14078
9.32608
9.48742
9.61647
9.69949
9.71344
9.62077
9.3637
8.85486
8.08187
7.63914
7.36998
7.24254
7.2166
7.26165
7.3567
7.4878
7.646
7.82607
8.02462
8.24065
8.1428
7.79196
7.55528
7.42637
7.3831
7.40427
7.47336
7.57836
7.71132
7.86739
8.04346
8.23907
8.18155
7.89805
7.69248
7.56908
7.51674
7.52138
7.5704
7.65388
7.76491
7.89919
8.05214
8.22534
8.20793
7.97429
7.7958
7.68062
7.62412
7.61727
7.65063
7.71615
7.80774
7.92106
8.04766
8.18497
8.47775
8.69079
8.88604
9.06344
9.21997
9.35066
9.4476
9.4983
9.4834
9.37511
9.13564
8.72584
8.48213
8.67419
8.84623
8.9997
9.13143
9.23676
9.30862
9.33622
9.30419
9.19191
8.97703
8.64472
8.49898
8.66753
8.81618
8.94778
9.0579
9.14218
9.19441
9.20559
9.16369
9.05436
8.86421
8.59137
8.5394
8.67362
8.79571
8.90636
8.99727
9.06387
9.10056
9.09999
9.05289
8.94921
8.78208
8.55483
8.22673
8.03058
7.87478
7.76845
7.71065
7.69575
7.71683
7.76726
7.8415
7.9342
8.03088
8.10299
8.24072
8.07315
7.93605
7.83822
7.78068
7.76011
7.77142
7.80912
7.86803
7.94193
8.01484
8.06012
8.25126
8.10592
7.98417
7.89403
7.83757
7.81297
7.8165
7.84355
7.88927
7.94731
8.00267
8.03354
8.25956
8.13157
8.02239
7.93903
7.88404
7.85655
7.8538
7.87195
7.90646
7.9513
7.99361
8.01533
8.26597
8.15189
8.05301
7.9755
7.92211
7.89251
7.88474
7.89548
7.92066
7.95468
7.98668
8.00262
8.27128
8.16815
8.07777
8.00527
7.95344
7.92234
7.91045
7.91509
7.93239
7.95755
7.98158
7.99323
8.2755
8.18123
8.09794
8.02959
7.97928
7.94705
7.93181
7.93146
7.94219
7.96021
7.97771
7.98656
8.279
8.19184
8.11435
8.04952
8.00057
7.9675
7.94956
7.94508
7.95038
7.96251
7.97491
7.98155
8.28193
8.19992
8.12727
8.065
8.01725
7.98363
7.96342
7.95601
7.95672
7.96461
7.97273
7.97808
8.2835
8.20557
8.13557
8.0754
8.02833
7.99428
7.97288
7.96302
7.96124
7.96572
7.97139
7.97549
8.28438
8.20864
8.14006
8.08106
8.0343
8.00006
7.97796
7.96682
7.96368
7.96635
7.97065
7.97393
8.28466
8.20983
8.14173
8.08318
8.03649
8.00218
7.97987
7.96824
7.96469
7.96668
7.97055
7.97353
8.62007
8.69035
8.78356
8.87383
8.94759
8.99924
9.0236
9.01454
8.96501
8.86826
8.7208
8.52861
8.66163
8.70598
8.7762
8.84823
8.90687
8.94586
8.9603
8.94502
8.89472
8.80475
8.6742
8.50926
8.68744
8.71744
8.77108
8.82778
8.87346
8.90182
8.90824
8.88839
8.83819
8.75471
8.63801
8.49448
8.70501
8.72611
8.76722
8.81123
8.84591
8.86533
8.86524
8.84192
8.79236
8.71451
8.60954
8.483
8.71741
8.73266
8.76409
8.79768
8.82317
8.83512
8.82973
8.80376
8.755
8.68215
8.5867
8.47384
8.7265
8.73769
8.7615
8.78653
8.80433
8.81
8.80027
8.77215
8.72434
8.65554
8.56817
8.46642
8.73318
8.74153
8.75933
8.77732
8.78876
8.78913
8.77594
8.74593
8.69916
8.63354
8.55287
8.46029
8.73822
8.7446
8.75759
8.76978
8.7759
8.77188
8.75576
8.72427
8.67828
8.6153
8.54014
8.45515
8.74199
8.74709
8.75635
8.76388
8.76599
8.75816
8.74026
8.70686
8.66232
8.60033
8.53003
8.45106
8.74475
8.749
8.75553
8.76006
8.7591
8.74936
8.7293
8.69589
8.65077
8.59098
8.52303
8.4482
8.74648
8.74999
8.75495
8.7578
8.75529
8.74443
8.72336
8.68986
8.64455
8.58605
8.51948
8.44662
8.74699
8.75017
8.75459
8.75688
8.75385
8.74265
8.72122
8.68779
8.64231
8.58458
8.51844
8.44605
)
;

boundaryField
{
    rotor
    {
        type            zeroGradient;
    }
    stator
    {
        type            zeroGradient;
    }
    front
    {
        type            empty;
    }
    back
    {
        type            empty;
    }
    procBoundary2to0
    {
        type            processor;
        value           nonuniform List<scalar> 
20
(
10.2763
9.40175
8.98543
8.76225
8.6335
8.5527
8.49983
8.46368
8.43803
8.4191
8.40491
8.39385
8.38532
8.37839
8.37298
8.36857
8.36515
8.36303
8.36173
8.36124
)
;
    }
    procBoundary2to3
    {
        type            processor;
        value           nonuniform List<scalar> 
20
(
6.23341
7.38991
7.84789
8.05702
8.16616
8.22807
8.26745
8.29423
8.31335
8.32747
8.33818
8.34646
8.35293
8.35806
8.36213
8.36535
8.36777
8.36932
8.3701
8.37036
)
;
    }
}


// ************************************************************************* //
