/*--------------------------------*- C++ -*----------------------------------*\
  =========                 |
  \\      /  F ield         | OpenFOAM: The Open Source CFD Toolbox
   \\    /   O peration     | Website:  https://openfoam.org
    \\  /    A nd           | Version:  6
     \\/     M anipulation  |
\*---------------------------------------------------------------------------*/
FoamFile
{
    version     2.0;
    format      ascii;
    class       surfaceScalarField;
    location    "1000";
    object      phi;
}
// * * * * * * * * * * * * * * * * * * * * * * * * * * * * * * * * * * * * * //

dimensions      [0 3 -1 0 0 0 0];

internalField   nonuniform List<scalar> 
1468
(
-4.98127e-06
4.99757e-06
-7.35398e-06
1.89228e-06
-8.42963e-06
1.19619e-06
-9.79653e-06
9.32184e-07
-1.03317e-05
6.57134e-07
-1.11714e-05
3.87086e-07
-1.12939e-05
2.3058e-07
-1.18503e-05
1.12528e-07
-1.18045e-05
6.74355e-08
-1.21866e-05
2.30001e-08
-1.19751e-05
2.35516e-08
2.66359e-09
-1.22056e-05
-1.92747e-06
6.82127e-06
-1.9115e-06
1.79231e-06
-1.4521e-06
7.26912e-07
-1.01148e-06
4.44884e-07
-6.53011e-07
2.90125e-07
-4.69571e-07
1.59024e-07
-3.16696e-07
6.50926e-08
-2.56112e-07
3.41354e-09
-1.72085e-07
-2.22871e-08
-1.48925e-07
-2.92881e-08
-9.41909e-08
-1.69648e-08
-6.00507e-10
-9.99919e-08
4.26008e-07
6.28916e-06
1.00161e-06
1.16809e-06
1.483e-06
2.37448e-07
1.88291e-06
3.09278e-08
2.21297e-06
-4.53308e-08
2.45136e-06
-9.24479e-08
2.63256e-06
-1.21583e-07
2.75436e-06
-1.31547e-07
2.85047e-06
-1.20801e-07
2.90905e-06
-9.45742e-08
2.95305e-06
-5.61104e-08
-1.19442e-08
2.96476e-06
1.24356e-06
4.89058e-06
2.02413e-06
3.35765e-07
2.51442e-06
-2.63293e-07
2.88423e-06
-3.50912e-07
3.19655e-06
-3.62494e-07
3.44714e-06
-3.53047e-07
3.65075e-06
-3.29696e-07
3.80198e-06
-2.91569e-07
3.91881e-06
-2.39434e-07
3.99565e-06
-1.76056e-07
4.04678e-06
-1.04838e-07
-2.91244e-08
4.06447e-06
1.62685e-06
2.98413e-06
2.55694e-06
-6.74094e-07
3.11404e-06
-8.42153e-07
3.52029e-06
-7.77299e-07
3.86052e-06
-7.11112e-07
4.13897e-06
-6.47027e-07
4.36937e-06
-5.65988e-07
4.54439e-06
-4.78861e-07
4.67956e-06
-3.7707e-07
4.76933e-06
-2.7384e-07
4.82777e-06
-1.62095e-07
-5.32414e-08
4.84767e-06
1.89834e-06
7.31797e-07
3.01678e-06
-1.89606e-06
3.66302e-06
-1.55417e-06
4.14506e-06
-1.28207e-06
4.52336e-06
-1.12752e-06
4.84387e-06
-9.80765e-07
5.09054e-06
-8.4003e-07
5.28963e-06
-6.84738e-07
5.42895e-06
-5.35269e-07
5.53183e-06
-3.77928e-07
5.58699e-06
-2.29593e-07
-7.59317e-08
5.61353e-06
2.10391e-06
-2.08408e-06
3.46406e-06
-3.44543e-06
4.27452e-06
-2.41995e-06
4.82841e-06
-1.89754e-06
5.27262e-06
-1.59995e-06
5.61136e-06
-1.36181e-06
5.88412e-06
-1.12908e-06
6.07961e-06
-9.09167e-07
6.23005e-06
-6.92511e-07
6.32315e-06
-4.90188e-07
6.38526e-06
-2.91561e-07
-1.03298e-07
6.40226e-06
2.22395e-06
-4.50511e-06
3.97485e-06
-5.27964e-06
4.96509e-06
-3.46197e-06
5.62397e-06
-2.59346e-06
6.10798e-06
-2.11817e-06
6.46944e-06
-1.74863e-06
6.73665e-06
-1.41995e-06
6.93101e-06
-1.11926e-06
7.06729e-06
-8.43977e-07
7.15685e-06
-5.89689e-07
7.20828e-06
-3.5187e-07
-1.24878e-07
7.22663e-06
2.28854e-06
-7.08837e-06
4.5701e-06
-7.61719e-06
5.79278e-06
-4.70983e-06
6.54173e-06
-3.3652e-06
7.04914e-06
-2.64535e-06
7.40184e-06
-2.11974e-06
7.64923e-06
-1.68182e-06
7.8213e-06
-1.30398e-06
7.938e-06
-9.71501e-07
8.01231e-06
-6.74042e-07
8.05359e-06
-4.01145e-07
-1.44623e-07
8.06775e-06
2.8801e-06
-9.80575e-06
5.49555e-06
-1.01995e-05
6.84263e-06
-6.05356e-06
7.61713e-06
-4.14073e-06
8.09434e-06
-3.12871e-06
8.40149e-06
-2.43248e-06
8.60343e-06
-1.89034e-06
8.73809e-06
-1.44444e-06
8.82511e-06
-1.06622e-06
8.87878e-06
-7.34697e-07
8.90643e-06
-4.3683e-07
-1.58488e-07
8.91621e-06
4.75601e-06
-1.43855e-05
7.03916e-06
-1.24052e-05
8.2293e-06
-7.21587e-06
8.87355e-06
-4.77345e-06
9.23433e-06
-3.48492e-06
9.44758e-06
-2.64468e-06
9.58009e-06
-2.02335e-06
9.66384e-06
-1.53098e-06
9.71542e-06
-1.12198e-06
9.74381e-06
-7.69757e-07
9.75699e-06
-4.56307e-07
-1.66353e-07
9.76111e-06
9.23095e-06
-2.35148e-05
9.73915e-06
-1.28243e-05
1.00741e-05
-7.50451e-06
1.03024e-05
-4.97759e-06
1.0434e-05
-3.60172e-06
1.05101e-05
-2.71221e-06
1.05562e-05
-2.06462e-06
1.05834e-05
-1.55668e-06
1.05966e-05
-1.13728e-06
1.05992e-05
-7.77866e-07
1.05971e-05
-4.5955e-07
1.05952e-05
-1.68202e-07
-1.19108e-05
1.04313e-08
-1.19984e-05
-8.29106e-09
-1.1598e-05
-8.47347e-09
-1.1572e-05
-4.18807e-08
-1.11075e-05
-7.27395e-08
-1.09274e-05
-1.61451e-07
-1.03245e-05
-2.98545e-07
-9.6438e-06
-5.5082e-07
-8.58231e-06
-8.47036e-07
-7.25105e-06
-1.14555e-06
-5.08636e-06
-1.88086e-06
-5.00717e-06
-7.9995e-08
2.25246e-08
-1.15768e-07
4.01833e-08
-1.27587e-07
5.50923e-08
-1.96622e-07
5.37621e-08
-2.54054e-07
3.67045e-08
-3.75421e-07
-1.2258e-08
-5.3366e-07
-9.64929e-08
-8.26595e-07
-2.1942e-07
-1.27418e-06
-3.57953e-07
-1.72328e-06
-6.40918e-07
-1.7596e-06
-1.71054e-06
-6.73387e-06
2.96392e-06
3.56323e-08
2.9333e-06
8.06768e-08
2.88783e-06
1.2019e-07
2.80785e-06
1.49028e-07
2.70204e-06
1.63229e-07
2.5489e-06
1.57966e-07
2.33834e-06
1.29963e-07
2.0488e-06
8.7562e-08
1.67592e-06
3.01425e-08
1.22814e-06
-1.63628e-07
6.53285e-07
-1.09107e-06
-6.08815e-06
4.05932e-06
4.78162e-08
4.02212e-06
1.23239e-07
3.96151e-06
1.94449e-07
3.8621e-06
2.575e-07
3.72977e-06
3.10844e-07
3.54721e-06
3.49255e-07
3.31692e-06
3.72158e-07
3.03111e-06
3.80916e-07
2.6933e-06
3.78238e-07
2.23555e-06
2.94651e-07
1.42624e-06
-2.9454e-07
-4.5702e-06
4.84016e-06
6.0193e-08
4.79659e-06
1.68372e-07
4.72303e-06
2.77743e-07
4.60814e-06
3.80243e-07
4.4517e-06
4.79788e-07
4.24321e-06
5.68257e-07
3.97963e-06
6.46505e-07
3.65814e-06
7.08024e-07
3.27568e-06
7.69508e-07
2.74503e-06
8.38942e-07
1.85846e-06
7.4884e-07
-2.61685e-06
5.59865e-06
6.96835e-08
5.55629e-06
2.21455e-07
5.47219e-06
3.67687e-07
5.35149e-06
5.20671e-07
5.1772e-06
6.68914e-07
4.95032e-06
8.2254e-07
4.64868e-06
9.63146e-07
4.28277e-06
1.10559e-06
3.83711e-06
1.26201e-06
3.24217e-06
1.52077e-06
2.14872e-06
1.9421e-06
-1.70771e-07
6.39456e-06
8.63455e-08
6.34515e-06
2.7269e-07
6.26839e-06
4.67739e-07
6.14058e-06
6.65373e-07
5.97038e-06
8.78787e-07
5.72369e-06
1.0954e-06
5.40927e-06
1.32959e-06
5.00041e-06
1.56523e-06
4.47191e-06
1.82663e-06
3.73039e-06
2.31549e-06
2.53303e-06
3.44279e-06
2.38182e-06
7.21539e-06
9.75612e-08
7.17489e-06
3.2278e-07
7.10062e-06
5.55985e-07
6.98862e-06
8.05779e-07
6.82052e-06
1.07379e-06
6.58917e-06
1.37074e-06
6.26322e-06
1.69052e-06
5.81483e-06
2.04272e-06
5.22353e-06
2.48009e-06
4.35032e-06
3.24458e-06
2.69796e-06
5.07931e-06
5.28289e-06
8.05886e-06
1.06471e-07
8.02578e-06
3.61001e-07
7.96689e-06
6.29464e-07
7.87182e-06
9.20308e-07
7.73026e-06
1.24332e-06
7.51872e-06
1.60839e-06
7.21243e-06
2.02757e-06
6.77569e-06
2.51783e-06
6.12056e-06
3.12353e-06
5.11806e-06
4.25846e-06
3.26687e-06
7.07635e-06
8.39028e-06
8.91006e-06
1.11981e-07
8.88849e-06
3.88063e-07
8.84822e-06
6.82053e-07
8.78012e-06
1.00438e-06
8.6739e-06
1.37016e-06
8.50736e-06
1.79313e-06
8.2534e-06
2.29814e-06
7.85181e-06
2.91957e-06
7.23984e-06
3.76906e-06
6.21717e-06
5.27001e-06
4.10283e-06
9.05824e-06
1.25165e-05
9.75914e-06
1.14237e-07
9.75082e-06
4.02353e-07
9.73165e-06
7.11272e-07
9.69611e-06
1.05371e-06
9.63327e-06
1.44521e-06
9.5294e-06
1.90621e-06
9.36007e-06
2.47397e-06
9.0806e-06
3.20748e-06
8.57887e-06
4.2368e-06
7.71464e-06
6.12088e-06
6.02798e-06
1.07305e-05
1.8308e-05
1.0598e-05
1.12435e-07
1.06032e-05
4.03055e-07
1.06061e-05
7.16831e-07
1.06035e-05
1.06683e-06
1.05882e-05
1.46592e-06
1.05581e-05
1.93957e-06
1.05025e-05
2.52385e-06
1.04007e-05
3.2945e-06
1.02203e-05
4.42345e-06
9.89166e-06
6.39582e-06
9.22155e-06
1.12561e-05
2.75491e-05
1.69507e-05
-8.7385e-06
1.32612e-05
-9.06199e-06
1.21393e-05
-6.33689e-06
1.17642e-05
-4.57483e-06
1.16172e-05
-3.43727e-06
1.15479e-05
-2.63197e-06
1.1509e-05
-2.01914e-06
1.14824e-05
-1.52713e-06
1.14596e-05
-1.11593e-06
1.14381e-05
-7.61068e-07
1.14206e-05
-4.46776e-07
-1.6215e-07
1.14129e-05
1.80913e-05
-3.87458e-06
1.49372e-05
-5.84831e-06
1.36027e-05
-4.9569e-06
1.29995e-05
-3.93993e-06
1.2695e-05
-3.112e-06
1.25256e-05
-2.44856e-06
1.24222e-05
-1.90664e-06
1.23523e-05
-1.45293e-06
1.22993e-05
-1.06384e-06
1.22566e-05
-7.22406e-07
1.22244e-05
-4.19835e-07
-1.49852e-07
1.22092e-05
1.76929e-05
-1.99081e-06
1.5749e-05
-3.85595e-06
1.46341e-05
-3.80285e-06
1.40145e-05
-3.29234e-06
1.36537e-05
-2.73228e-06
1.34326e-05
-2.2146e-06
1.32891e-05
-1.75483e-06
1.31892e-05
-1.34918e-06
1.31137e-05
-9.88713e-07
1.30531e-05
-6.66536e-07
1.30069e-05
-3.76594e-07
-1.21293e-07
1.29819e-05
1.74468e-05
-1.16111e-06
1.62718e-05
-2.64296e-06
1.54225e-05
-2.91818e-06
1.48696e-05
-2.71296e-06
1.45111e-05
-2.35465e-06
1.42739e-05
-1.964e-06
1.41113e-05
-1.5837e-06
1.39941e-05
-1.2276e-06
1.3903e-05
-8.98868e-07
1.38291e-05
-5.96711e-07
1.377e-05
-3.18177e-07
1.37238e-05
-8.07447e-08
1.1421e-05
1.06358e-07
1.14392e-05
3.90039e-07
1.14633e-05
7.00683e-07
1.14901e-05
1.04628e-06
1.15202e-05
1.43825e-06
1.15586e-05
1.89687e-06
1.16202e-05
2.45318e-06
1.17427e-05
3.16226e-06
1.20105e-05
4.11706e-06
1.27844e-05
5.59975e-06
1.57321e-05
8.27848e-06
1.15806e-05
1.22242e-05
9.31637e-08
1.22556e-05
3.63627e-07
1.22976e-05
6.65076e-07
1.2349e-05
9.98128e-07
1.24149e-05
1.37146e-06
1.2506e-05
1.79687e-06
1.26502e-05
2.29481e-06
1.29002e-05
2.88994e-06
1.33834e-05
3.6216e-06
1.44084e-05
4.52539e-06
1.69945e-05
5.63884e-06
5.60212e-06
1.30074e-05
6.81163e-08
1.30518e-05
3.22798e-07
1.31082e-05
6.12538e-07
1.31784e-05
9.29507e-07
1.32686e-05
1.27757e-06
1.33929e-05
1.66245e-06
1.35801e-05
2.09246e-06
1.38828e-05
2.56973e-06
1.43919e-05
3.08283e-06
1.53029e-05
3.59552e-06
1.70057e-05
3.90939e-06
2.9999e-06
1.37716e-05
2.23696e-08
1.38294e-05
2.67838e-07
1.38971e-05
5.47284e-07
1.39802e-05
8.46704e-07
1.4085e-05
1.16689e-06
1.42265e-05
1.5097e-06
1.44287e-05
1.87207e-06
1.47334e-05
2.24424e-06
1.52049e-05
2.59415e-06
1.59339e-05
2.83415e-06
1.70553e-05
2.76738e-06
1.75035e-06
1.96704e-06
-7.29827e-07
1.23003e-06
-1.87686e-06
6.00704e-07
-2.26151e-06
1.40298e-07
-2.23142e-06
-1.84151e-07
-2.0148e-06
-4.12864e-07
-1.72467e-06
-5.77295e-07
-1.41237e-06
-7.00767e-07
-1.10081e-06
-7.99974e-07
-8.00867e-07
-8.82572e-07
-5.16397e-07
-9.58307e-07
-2.44964e-07
1.66703e-08
-1.04087e-06
1.5182e-06
-4.94451e-07
1.04312e-06
-1.37847e-06
5.78445e-07
-1.77394e-06
2.02802e-07
-1.83652e-06
-8.23269e-08
-1.71523e-06
-2.9485e-07
-1.50182e-06
-4.54393e-07
-1.24595e-06
-5.78905e-07
-9.73709e-07
-6.82737e-07
-6.98471e-07
-7.75644e-07
-4.26867e-07
-8.7828e-07
-1.33962e-07
1.92866e-07
-1.0685e-06
1.19974e-06
-3.54971e-07
8.81911e-07
-1.04402e-06
5.36158e-07
-1.41111e-06
2.3248e-07
-1.51846e-06
-1.29623e-08
-1.45905e-06
-2.04905e-07
-1.30233e-06
-3.54505e-07
-1.09152e-06
-4.75018e-07
-8.51512e-07
-5.80097e-07
-5.94032e-07
-6.85087e-07
-3.21357e-07
-8.53896e-07
3.01349e-08
6.62274e-07
-1.29326e-06
9.6792e-07
-2.65108e-07
7.47489e-07
-8.10338e-07
4.8701e-07
-1.13599e-06
2.42104e-07
-1.26083e-06
3.35017e-08
-1.24024e-06
-1.36372e-07
-1.12498e-06
-2.72812e-07
-9.50634e-07
-3.84729e-07
-7.37861e-07
-4.85078e-07
-4.95713e-07
-5.94432e-07
-2.15639e-07
-7.82069e-07
2.32052e-07
-1.94297e-06
1.80139e-06
-9.48811e-07
-7.76332e-08
-8.74004e-07
1.91188e-07
-7.96176e-07
4.6974e-07
-7.04279e-07
7.52996e-07
-5.90557e-07
1.04724e-06
-4.42234e-07
1.3501e-06
-2.38826e-07
1.65311e-06
4.98925e-08
1.93852e-06
4.60292e-07
2.16415e-06
1.03318e-06
2.25002e-06
1.77385e-06
2.01396e-06
1.10236e-06
-8.69054e-07
-2.72309e-07
-7.65257e-07
8.59841e-08
-6.7801e-07
3.82476e-07
-5.81893e-07
6.54657e-07
-4.67054e-07
9.2627e-07
-3.22238e-07
1.19327e-06
-1.31001e-07
1.44576e-06
1.2666e-07
1.66263e-06
4.72392e-07
1.80366e-06
9.13279e-07
1.79239e-06
1.41577e-06
1.50479e-06
7.45306e-07
-8.38123e-07
-7.46793e-07
-6.74757e-07
-8.13011e-08
-5.75708e-07
2.81347e-07
-4.78678e-07
5.54519e-07
-3.67823e-07
8.09301e-07
-2.31699e-07
1.04696e-06
-5.78787e-08
1.25876e-06
1.66746e-07
1.4238e-06
4.52029e-07
1.50612e-06
7.92908e-07
1.44575e-06
1.14204e-06
1.15149e-06
5.31301e-07
-7.60903e-07
-1.91361e-06
-5.79763e-07
-2.62213e-07
-4.80564e-07
1.81665e-07
-3.88926e-07
4.60778e-07
-2.86273e-07
7.00713e-07
-1.61896e-07
9.12875e-07
-7.35129e-09
1.09055e-06
1.85595e-07
1.2169e-06
4.20026e-07
1.26059e-06
6.83615e-07
1.1744e-06
9.33366e-07
9.01324e-07
3.96592e-07
7.95307e-07
-2.07529e-07
6.3759e-07
-6.43045e-07
4.38398e-07
-9.26215e-07
2.40551e-07
-1.05362e-06
6.4407e-08
-1.05681e-06
-8.398e-08
-9.71731e-07
-2.05613e-07
-8.26066e-07
-3.05537e-07
-6.37241e-07
-3.90727e-07
-4.11655e-07
-4.64772e-07
-1.39773e-07
-5.32254e-07
2.93204e-07
1.30937e-06
6.64926e-07
-1.63304e-07
5.484e-07
-5.18625e-07
3.93715e-07
-7.62634e-07
2.33171e-07
-8.84654e-07
8.48394e-08
-9.01602e-07
-4.35292e-08
-8.38345e-07
-1.50312e-07
-7.16439e-07
-2.37019e-07
-5.50404e-07
-3.04801e-07
-3.4582e-07
-3.47634e-07
-1.01649e-07
-3.0695e-07
2.61986e-07
9.65852e-07
5.6406e-07
-1.35377e-07
4.76101e-07
-4.24622e-07
3.54204e-07
-6.34442e-07
2.23135e-07
-7.47248e-07
9.82403e-08
-7.7202e-07
-1.22893e-08
-7.24765e-07
-1.05244e-07
-6.22009e-07
-1.7952e-07
-4.76266e-07
-2.3337e-07
-2.93261e-07
-2.56946e-07
-7.78491e-08
-2.14048e-07
2.0979e-07
7.78045e-07
4.85864e-07
-1.08389e-07
4.17285e-07
-3.51899e-07
3.19991e-07
-5.31455e-07
2.1212e-07
-6.34225e-07
1.06858e-07
-6.62024e-07
1.19594e-08
-6.26479e-07
-6.85948e-08
-5.3997e-07
-1.3198e-07
-4.13224e-07
-1.75401e-07
-2.52695e-07
-1.90438e-07
-6.7425e-08
-1.48114e-07
1.69287e-07
5.87068e-07
4.23138e-07
-9.52e-08
3.69405e-07
-2.93815e-07
2.90556e-07
-4.49554e-07
2.0127e-07
-5.40485e-07
1.12226e-07
-5.70111e-07
3.06825e-08
-5.43177e-07
-3.90564e-08
-4.69691e-07
-9.33921e-08
-3.59595e-07
-1.29352e-07
-2.18318e-07
-1.39022e-07
-5.82607e-08
-1.08135e-07
1.28638e-07
4.90547e-07
3.73998e-07
-7.83968e-08
3.29798e-07
-2.4732e-07
2.65696e-07
-3.82692e-07
1.90777e-07
-4.62349e-07
1.15393e-07
-4.91882e-07
4.51927e-08
-4.70756e-07
-1.52565e-08
-4.08259e-07
-6.19568e-08
-3.13915e-07
-9.24907e-08
-1.89954e-07
-1.00628e-07
-5.50696e-08
-7.51752e-08
1.01585e-07
3.69595e-07
3.34699e-07
-6.92608e-08
2.97647e-07
-2.11043e-07
2.4544e-07
-3.27735e-07
1.81492e-07
-3.98243e-07
1.17536e-07
-4.2642e-07
5.65684e-08
-4.09967e-07
3.74021e-09
-3.56774e-07
-3.64585e-08
-2.74543e-07
-6.36443e-08
-1.66447e-07
-7.01866e-08
-4.93073e-08
-5.59792e-08
7.66839e-08
3.12642e-07
3.09636e-07
-6.34017e-08
2.77297e-07
-1.76733e-07
2.33478e-07
-2.85191e-07
1.77088e-07
-3.40462e-07
1.21418e-07
-3.70475e-07
6.68883e-08
-3.54993e-07
1.96354e-08
-3.09412e-07
-1.61217e-08
-2.40667e-07
-4.10519e-08
-1.43381e-07
-4.79193e-08
-4.70384e-08
-4.01365e-08
6.45835e-08
2.3205e-07
3.18591e-07
-4.24302e-08
2.84405e-07
-1.59988e-07
2.46186e-07
-2.33175e-07
1.88855e-07
-2.96965e-07
1.36272e-07
-3.13036e-07
8.18319e-08
-3.05812e-07
3.44572e-08
-2.68337e-07
3.02428e-10
-2.03354e-07
-2.67702e-08
-1.29482e-07
-3.26717e-08
-3.47241e-08
-3.46124e-08
4.93337e-08
2.01127e-07
4.02753e-07
-3.19014e-08
3.65897e-07
-1.28816e-07
3.17992e-07
-1.85401e-07
2.50291e-07
-2.40265e-07
1.85233e-07
-2.51009e-07
1.18324e-07
-2.48101e-07
6.01436e-08
-2.18446e-07
1.63846e-08
-1.66013e-07
-1.65806e-08
-1.10039e-07
-2.68974e-08
-3.02171e-08
-3.07409e-08
3.65041e-08
1.33443e-07
6.65509e-07
3.23234e-09
6.09676e-07
-8.76401e-08
5.33468e-07
-1.1345e-07
4.28127e-07
-1.64975e-07
3.2369e-07
-1.61248e-07
2.16345e-07
-1.68512e-07
1.21922e-07
-1.5227e-07
4.9008e-08
-1.18374e-07
-5.64944e-09
-9.78528e-08
-2.59937e-08
-3.77594e-08
-3.38276e-08
-1.3198e-08
2.99938e-08
1.15463e-06
1.06662e-06
9.46147e-07
7.78105e-07
6.10711e-07
4.35648e-07
2.7814e-07
1.49793e-07
4.61206e-08
-3.84955e-09
-2.99938e-08
-5.02561e-07
-1.42856e-06
-4.51188e-07
-3.15814e-07
-3.86376e-07
1.15059e-07
-3.09949e-07
3.81342e-07
-2.18744e-07
6.04419e-07
-1.07786e-07
7.93881e-07
2.79149e-08
9.44582e-07
1.92268e-07
1.04217e-06
3.84398e-07
1.06081e-06
5.9062e-07
9.65907e-07
7.73559e-07
7.18879e-07
3.06266e-07
-2.93514e-07
-1.10587e-06
-3.36548e-07
-2.69717e-07
-3.01986e-07
8.11264e-08
-2.41688e-07
3.19712e-07
-1.62796e-07
5.21398e-07
-6.53153e-08
6.88806e-07
5.27076e-08
8.16721e-07
1.92037e-07
8.92534e-07
3.49899e-07
8.95935e-07
5.12397e-07
8.00575e-07
6.50053e-07
5.83708e-07
2.43092e-07
-2.05604e-07
-9.0325e-07
-2.51347e-07
-2.23135e-07
-2.32137e-07
6.13601e-08
-1.8455e-07
2.70178e-07
-1.16957e-07
4.50266e-07
-3.19688e-08
5.98097e-07
7.01177e-08
7.07346e-07
1.88192e-07
7.67532e-07
3.18249e-07
7.61238e-07
4.47888e-07
6.71228e-07
5.53386e-07
4.81048e-07
1.97775e-07
-1.46871e-07
-7.21543e-07
-1.87674e-07
-1.77636e-07
-1.75895e-07
5.12112e-08
-1.37379e-07
2.31471e-07
-7.94504e-08
3.89483e-07
-5.64774e-09
5.19254e-07
8.25014e-08
6.12249e-07
1.82452e-07
6.60916e-07
2.90328e-07
6.497e-07
3.9444e-07
5.67524e-07
4.76943e-07
4.02404e-07
1.63817e-07
-1.07014e-07
-6.06531e-07
-1.3963e-07
-1.42722e-07
-1.31078e-07
4.31697e-08
-9.9047e-08
1.98472e-07
-4.89602e-08
3.37475e-07
1.5031e-08
4.51573e-07
9.13395e-08
5.31307e-07
1.76093e-07
5.72171e-07
2.66143e-07
5.57643e-07
3.50374e-07
4.85784e-07
4.15615e-07
3.41544e-07
1.38906e-07
-7.84904e-08
-4.96814e-07
-1.02843e-07
-1.13365e-07
-9.53105e-08
3.75926e-08
-6.77668e-08
1.71364e-07
-2.4151e-08
2.92105e-07
3.13837e-08
3.92958e-07
9.78018e-08
4.60175e-07
1.69539e-07
4.97007e-07
2.45702e-07
4.8005e-07
3.1371e-07
4.20963e-07
3.65883e-07
2.94128e-07
1.19348e-07
-5.9123e-08
-4.23618e-07
-7.46243e-08
-9.44036e-08
-6.67647e-08
3.12354e-08
-4.25318e-08
1.47538e-07
-3.80881e-09
2.53858e-07
4.42668e-08
3.42317e-07
1.03233e-07
4.01386e-07
1.63513e-07
4.32876e-07
2.29685e-07
4.18129e-07
2.83765e-07
3.66723e-07
3.258e-07
2.57359e-07
1.05539e-07
-4.67268e-08
-3.4911e-07
-5.32033e-08
-8.29666e-08
-4.42144e-08
2.46121e-08
-2.19051e-08
1.26765e-07
1.34402e-08
2.17607e-07
5.64773e-08
2.9898e-07
1.10149e-07
3.43977e-07
1.6254e-07
3.80917e-07
2.21441e-07
3.57691e-07
2.6549e-07
3.27875e-07
2.99679e-07
2.25329e-07
9.31531e-08
-4.21252e-08
-2.93797e-07
-3.9955e-08
-7.96346e-08
-2.91046e-08
1.66052e-08
-6.87886e-09
1.04484e-07
3.00767e-08
1.89664e-07
7.06973e-08
2.4839e-07
1.27932e-07
3.05966e-07
1.74578e-07
3.1373e-07
2.376e-07
3.24552e-07
2.72949e-07
2.68239e-07
3.05012e-07
2.00191e-07
8.43251e-08
-4.3917e-08
-2.19657e-07
-3.75346e-08
-7.22787e-08
-2.37389e-08
1.05753e-08
4.99494e-09
8.49111e-08
4.93197e-08
1.52078e-07
1.02135e-07
1.99217e-07
1.69501e-07
2.46421e-07
2.30544e-07
2.5001e-07
3.03353e-07
2.66141e-07
3.46888e-07
2.10861e-07
3.80966e-07
1.55958e-07
7.49342e-08
-5.44185e-08
-1.06616e-07
-5.26227e-08
-3.35562e-08
-3.20783e-08
1.97643e-08
1.43436e-08
6.64306e-08
8.48022e-08
1.0575e-07
1.70368e-07
1.24997e-07
2.75985e-07
1.63804e-07
3.75779e-07
1.47775e-07
4.88881e-07
1.88313e-07
5.56064e-07
1.01466e-07
6.0761e-07
7.80156e-08
6.41872e-08
-9.62247e-08
-1.23001e-07
-9.70149e-08
-2.47871e-08
8.30305e-08
2.14004e-07
3.76172e-07
5.3321e-07
7.12031e-07
8.06776e-07
8.88677e-07
)
;

boundaryField
{
    rotor
    {
        type            calculated;
        value           uniform 0;
    }
    stator
    {
        type            calculated;
        value           uniform 0;
    }
    front
    {
        type            empty;
        value           nonuniform 0();
    }
    back
    {
        type            empty;
        value           nonuniform 0();
    }
    procBoundary2to0
    {
        type            processor;
        value           nonuniform List<scalar> 
20
(
-3.16523e-05
-2.2947e-05
-1.95431e-05
-1.82678e-05
-2.38521e-06
-1.74826e-06
-1.33494e-06
-1.05257e-06
-8.526e-07
-7.04753e-07
-5.94354e-07
-5.07982e-07
-4.41693e-07
-3.87146e-07
-3.45158e-07
-3.1708e-07
-3.21944e-07
-4.09048e-07
-6.74102e-07
-1.14831e-06
)
;
    }
    procBoundary2to3
    {
        type            processor;
        value           nonuniform List<scalar> 
20
(
3.16392e-05
2.29959e-05
1.9598e-05
1.83127e-05
2.422e-06
1.77865e-06
1.35974e-06
1.07327e-06
8.68728e-07
7.17928e-07
6.03778e-07
5.15381e-07
4.45772e-07
3.89885e-07
3.45353e-07
3.15798e-07
3.19803e-07
3.98519e-07
6.35974e-07
9.56914e-07
)
;
    }
}


// ************************************************************************* //
