/*--------------------------------*- C++ -*----------------------------------*\
  =========                 |
  \\      /  F ield         | OpenFOAM: The Open Source CFD Toolbox
   \\    /   O peration     | Website:  https://openfoam.org
    \\  /    A nd           | Version:  6
     \\/     M anipulation  |
\*---------------------------------------------------------------------------*/
FoamFile
{
    version     2.0;
    format      ascii;
    class       volScalarField;
    location    "1500";
    object      epsilon;
}
// * * * * * * * * * * * * * * * * * * * * * * * * * * * * * * * * * * * * * //

dimensions      [0 2 -3 0 0 0 0];

internalField   nonuniform List<scalar> 
3072
(
264.203
193.812
202.759
207.54
206.102
208.559
205.914
208.101
205.407
209.857
215.709
216.773
260.181
105.922
80.6529
69.1002
63.6171
61.241
59.9347
59.3582
58.8984
58.8913
59.0329
59.0454
231.781
88.588
50.7864
35.6523
30.0107
28.0057
27.3009
27.0669
26.9767
26.9521
26.9624
26.9851
205.41
81.6915
43.176
28.423
23.3061
21.6225
21.0968
20.9377
20.8887
20.8796
20.8821
20.8883
195.23
78.0327
40.1119
26.2318
21.6386
20.2016
19.7766
19.6576
19.624
19.6164
19.6146
19.6168
184.829
74.4128
38.0314
25.1301
21.0278
19.7933
19.4456
19.3488
19.3248
19.3151
19.3153
19.3151
177.387
71.5325
36.3913
24.3552
20.6742
19.6125
19.3181
19.2439
19.22
19.2176
19.2158
19.2209
171.515
69.3257
35.0997
23.7607
20.4224
19.4909
19.2425
19.1775
19.1606
19.1571
19.1573
19.1598
167.467
67.767
34.1876
23.3193
20.2304
19.3951
19.1787
19.1238
19.1132
19.1068
19.1024
19.1039
156.725
66.8426
33.614
23.0152
20.087
19.318
19.123
19.0834
19.08
19.065
19.0608
19.06
151.646
68.5675
33.1967
22.7154
19.9472
19.2486
19.0731
19.0419
19.0424
19.0265
19.0209
19.0235
179.757
68.5677
31.2423
22.0307
19.7303
19.1628
19.0196
18.9963
19.0017
18.9935
18.9885
18.9866
215.068
215.964
214.511
215.46
216.681
223.088
222.495
220.899
213.398
200.884
182.771
261.273
58.9455
59.0051
58.9623
59.0669
59.1688
59.477
59.5848
60.6249
65.6287
80.0887
116.84
259.549
26.9942
27.0099
27.0155
27.0237
27.0239
27.0488
27.2165
28.3541
33.2264
48.1863
87.8781
232.305
20.892
20.8973
20.9007
20.9058
20.9073
20.9206
21.0414
21.9222
25.9069
39.2813
77.0161
212.933
19.6163
19.6162
19.6157
19.6182
19.6207
19.6302
19.7203
20.4
23.7296
35.6651
71.026
200.407
19.3197
19.3169
19.3146
19.3124
19.3155
19.3206
19.3892
19.9213
22.6986
33.3287
66.1884
184.129
19.2208
19.2207
19.2162
19.2161
19.2134
19.2172
19.2667
19.6863
22.0222
31.4672
61.9344
176.164
19.1619
19.1584
19.1546
19.1555
19.1592
19.1593
19.2009
19.5359
21.501
30.0245
59.4231
172.404
19.1095
19.1101
19.1056
19.1088
19.1123
19.1162
19.1504
19.4144
21.0914
28.7039
56.3803
170.228
19.0612
19.0623
19.0583
19.0627
19.0679
19.073
19.1035
19.3205
20.7242
27.5564
54.0957
167.191
19.0131
19.0103
19.0173
19.0133
19.0143
19.026
19.0593
19.2389
20.4017
26.349
51.407
165.674
18.9738
18.9692
18.9691
18.9646
18.97
18.9842
19.0159
19.1523
20.0267
24.9213
49.4224
171.675
342.779
201.426
204.017
207.831
205.619
211.15
217.322
216.168
204.65
209.751
219.107
223.675
248.15
103.296
77.6787
66.7639
62.0309
60.2452
59.5183
59.022
58.387
58.5307
58.8657
59.0708
220.383
87.8414
50.2392
35.2737
29.766
27.8568
27.2177
27.003
26.9043
26.8978
26.9311
26.9665
204.343
81.8664
43.0333
28.3302
23.2508
21.5899
21.0756
20.9227
20.8742
20.8674
20.873
20.8827
191.543
77.4178
39.9488
26.1675
21.6162
20.1845
19.7696
19.6496
19.6236
19.6117
19.6147
19.6119
185.785
74.2705
37.9308
25.1035
21.0092
19.7907
19.4352
19.3515
19.3226
19.3237
19.3135
19.3225
178.094
71.7029
36.3552
24.3344
20.6707
19.6055
19.3179
19.2375
19.2206
19.2122
19.2127
19.211
174.093
68.9786
35.0118
23.7416
20.4174
19.4868
19.2402
19.1758
19.1631
19.1611
19.1565
19.1545
168.965
66.9457
33.9915
23.2962
20.2273
19.3952
19.1796
19.1262
19.1122
19.1097
19.1081
19.1087
158.939
65.8505
33.4643
22.9849
20.0797
19.3169
19.1221
19.0733
19.0644
19.0614
19.0567
19.06
152.384
67.8683
33.1116
22.6861
19.9365
19.2429
19.0724
19.0353
19.0261
19.0251
19.0169
19.0115
180.732
68.298
31.2485
22.0101
19.7195
19.1558
19.0174
18.986
18.9792
18.984
18.9834
18.9769
214.193
208.606
215.848
216.954
218.263
225.08
224.392
222.821
214.793
201.909
184.29
264.818
58.7126
58.5717
58.8434
59.0289
59.1547
59.4952
59.6102
60.6372
65.5778
80.0787
117.806
262.429
26.9591
26.9654
26.9893
27.0073
27.0195
27.069
27.247
28.3794
33.2419
48.241
88.0658
232.571
20.8857
20.891
20.8956
20.9013
20.905
20.9211
21.0442
21.9255
25.9061
39.2052
76.2734
206.342
19.6168
19.614
19.6187
19.6175
19.6233
19.6293
19.724
20.4
23.7187
35.5836
70.4138
196.887
19.3145
19.3208
19.313
19.319
19.3115
19.3254
19.3867
19.9236
22.7077
33.2808
65.9348
184.657
19.214
19.2142
19.2163
19.2119
19.2106
19.212
19.2697
19.684
22.0313
31.443
61.2635
176.233
19.1553
19.156
19.1553
19.154
19.1506
19.1545
19.1968
19.5328
21.5034
29.9534
59.3037
171.435
19.1026
19.0999
19.0994
19.0984
19.107
19.1116
19.147
19.4123
21.0773
28.6924
56.0132
169.635
19.0575
19.0545
19.053
19.0517
19.0577
19.0672
19.1035
19.3216
20.7117
27.4556
53.9991
162.516
19.0161
19.0138
19.0121
19.0139
19.0249
19.0364
19.0649
19.2422
20.3859
26.3215
51.2733
164.181
18.9769
18.9713
18.9708
18.9795
18.9898
19.0006
19.0232
19.1609
20.0251
24.8781
49.4155
173.87
264.322
193.834
202.791
207.51
206.097
208.523
205.916
210.641
216.347
217.523
215.613
216.778
260.277
105.975
80.7469
69.1754
63.6824
61.2935
59.9955
59.5686
59.4298
59.298
59.117
59.0874
231.499
88.5508
50.8157
35.6771
30.0284
28.0183
27.309
27.0771
27.0044
26.9917
26.9853
26.9877
211.751
82.097
43.2539
28.4491
23.3131
21.6252
21.0987
20.9404
20.8945
20.8888
20.8892
20.8913
200.441
78.317
40.2002
26.2528
21.6444
20.2026
19.7773
19.6594
19.628
19.6223
19.6183
19.6172
185.424
74.4123
38.1054
25.1514
21.0344
19.7949
19.4478
19.353
19.3345
19.3275
19.3223
19.3163
177.173
71.4393
36.4583
24.3853
20.6835
19.6163
19.3207
19.2506
19.2346
19.2321
19.2189
19.215
167.391
69.0488
35.1742
23.7919
20.4312
19.4942
19.2451
19.1888
19.1798
19.1689
19.1575
19.1551
165.379
67.6676
34.2742
23.3533
20.2366
19.3978
19.1809
19.136
19.1305
19.1157
19.1061
19.1069
157.454
66.9621
33.7059
23.0269
20.0849
19.3167
19.122
19.0845
19.0823
19.07
19.0634
19.0596
152.157
68.6402
33.2409
22.7016
19.9399
19.2412
19.0675
19.037
19.0323
19.0254
19.0285
19.0274
179.806
68.5539
31.2334
22.0209
19.7201
19.1529
19.0133
18.9942
18.9997
18.9983
18.9931
18.9897
217.644
222.134
213.089
207.503
216.887
223.189
222.613
220.999
213.487
200.955
182.891
261.559
59.0986
59.2703
58.9188
58.7676
59.1276
59.4848
59.5947
60.6269
65.6253
80.1029
117.034
259.801
27.0032
27.03
27.0137
27.0071
27.0349
27.0716
27.2304
28.3577
33.2253
48.1924
87.8917
231.683
20.8946
20.9005
20.8986
20.8998
20.9057
20.9233
21.0442
21.9207
25.9023
39.2154
76.5315
206.443
19.6164
19.6173
19.6161
19.6176
19.6189
19.6291
19.7203
20.3987
23.7144
35.6263
70.7497
196.024
19.3195
19.3165
19.3135
19.3102
19.3121
19.3194
19.3907
19.917
22.7052
33.3192
66.2336
184.094
19.2131
19.2173
19.213
19.2124
19.2101
19.2181
19.2699
19.6871
22.028
31.5024
62.0377
176.023
19.1541
19.1558
19.1521
19.1476
19.1496
19.1566
19.2046
19.5368
21.5004
30.0286
59.4459
171.858
19.1072
19.1095
19.1063
19.1036
19.1024
19.1095
19.1499
19.4176
21.0755
28.6938
56.4015
169.644
19.0541
19.0552
19.0607
19.0641
19.0609
19.0654
19.1024
19.3219
20.7014
27.4746
54.0889
166.617
19.0208
19.0218
19.0145
19.01
19.0154
19.0249
19.0578
19.2344
20.3833
26.2703
51.4679
166.335
18.9787
18.9752
18.9739
18.974
18.9871
18.9913
19.0148
19.1503
20.0223
24.8869
49.4135
173.154
264.157
193.318
202.611
206.978
205.813
207.659
207.632
219.325
220.989
216.594
214.658
215.821
259.791
105.795
80.6605
69.0669
63.5824
61.1779
60.0139
59.8459
59.5652
59.1749
58.9219
58.919
231.022
88.399
50.7726
35.6506
30.0078
27.9965
27.2968
27.0859
27.0211
26.9973
26.9836
26.9901
205.167
81.5235
43.1722
28.4287
23.3054
21.6201
21.0943
20.9384
20.8964
20.8909
20.8897
20.8932
194.869
77.86
40.1337
26.2391
21.6434
20.1979
19.7769
19.6549
19.6273
19.6171
19.619
19.6159
186.194
74.3699
38.0838
25.1566
21.0298
19.7978
19.4415
19.3559
19.3266
19.3282
19.3202
19.3253
174.701
71.3306
36.4596
24.3867
20.6864
19.6124
19.3218
19.2449
19.2285
19.2215
19.2253
19.2194
167.568
68.7989
35.1763
23.7931
20.4319
19.493
19.2435
19.1802
19.1681
19.1646
19.1645
19.1655
158.478
67.3638
34.2616
23.3594
20.2409
19.4016
19.183
19.1255
19.1144
19.1149
19.1082
19.1082
153.455
66.8388
33.7658
23.0445
20.0921
19.3236
19.1269
19.077
19.0637
19.0608
19.0604
19.0643
152.343
69.0583
33.3581
22.7309
19.9498
19.2497
19.0765
19.0417
19.0358
19.0222
19.0171
19.0164
180.512
69.0031
31.3714
22.0368
19.7267
19.1614
19.0203
18.9965
18.9889
18.9802
18.9857
18.9837
214.497
215.648
216.835
223.636
221.159
216.786
217.428
221.475
214.156
201.72
183.961
263.254
58.8636
58.9706
59.0865
59.424
59.3651
59.2447
59.3591
60.6079
65.628
80.1618
117.574
261.187
26.9919
26.9953
26.9938
27.0231
27.0399
27.0645
27.2314
28.365
33.2106
48.1881
87.9517
232.096
20.8945
20.8939
20.8915
20.8986
20.9072
20.9234
21.0459
21.9236
25.8989
39.1892
76.3075
206.229
19.6195
19.6161
19.6191
19.618
19.6232
19.6294
19.7241
20.4
23.7129
35.576
70.3772
196.213
19.319
19.3221
19.3136
19.32
19.3149
19.3274
19.3893
19.9204
22.6969
33.2291
65.8392
183.676
19.218
19.2099
19.2052
19.203
19.2068
19.2115
19.2691
19.6838
22.0163
31.4105
61.2015
176.043
19.162
19.1505
19.144
19.1474
19.1481
19.1536
19.1972
19.53
21.5075
29.9492
59.3003
171.687
19.1092
19.0988
19.0968
19.0952
19.0942
19.1034
19.1447
19.411
21.0853
28.7082
56.0537
169.972
19.0672
19.0623
19.0609
19.0597
19.0579
19.0618
19.0978
19.3175
20.7261
27.5236
54.1563
164.509
19.0194
19.0215
19.0174
19.022
19.0284
19.031
19.0595
19.2377
20.3898
26.3275
51.3534
164.028
18.9781
18.9751
18.9754
18.9838
18.9917
18.9973
19.0213
19.1589
20.0277
24.8982
49.4871
172.593
65.5273
39.1324
25.4269
20.7461
19.4137
19.0614
18.9664
18.9515
18.959
18.9475
18.9467
18.9407
34.2512
26.4668
21.707
19.7665
19.1489
18.9713
18.9214
18.9179
18.9267
18.9098
18.9068
18.9057
23.6982
21.5557
19.9589
19.2316
18.9826
18.9107
18.8879
18.8827
18.8911
18.8769
18.8727
18.8875
20.345
19.7569
19.2316
18.9748
18.8879
18.8642
18.8589
18.8605
18.8627
18.8538
18.8545
18.9073
18.9371
18.9458
18.9461
18.9429
18.9431
18.9451
18.97
19.06
19.5586
22.3126
35.4766
88.8603
18.8958
18.8997
18.9114
18.91
18.9073
18.9141
18.9286
18.9817
19.2116
20.3892
25.3274
40.1202
18.8734
18.8676
18.8751
18.8811
18.8774
18.8829
18.9095
18.9308
19.0183
19.4447
21.0637
24.8969
18.9049
18.8545
18.8426
18.8468
18.8484
18.853
18.8749
18.8792
18.9103
19.0575
19.5507
20.5882
65.5164
39.221
25.4268
20.738
19.4072
19.055
18.9608
18.9497
18.9512
18.9483
18.9427
18.9431
34.3746
26.5023
21.7177
19.7669
19.1442
18.961
18.9096
18.9069
18.9076
18.9122
18.9158
18.9053
23.7491
21.5731
19.9629
19.2366
18.9746
18.8898
18.8787
18.876
18.8725
18.8736
18.8829
18.8754
20.3588
19.7598
19.2373
18.9793
18.8747
18.8356
18.8355
18.8376
18.8423
18.8464
18.8621
18.8966
18.9432
18.9381
18.9352
18.9449
18.9481
18.9553
18.9767
19.0655
19.559
22.2999
35.3282
88.2617
18.9051
18.9081
18.9049
18.9128
18.9225
18.9249
18.9342
18.9857
19.2173
20.3803
25.255
39.7099
18.8637
18.8684
18.8721
18.8722
18.8834
18.8957
18.8994
18.9204
19.0233
19.4551
21.0421
24.7663
18.8948
18.8531
18.8383
18.8317
18.8325
18.851
18.8611
18.8716
18.9108
19.0647
19.5497
20.5506
65.3517
39.1301
25.4293
20.7454
19.4082
19.0532
18.9634
18.9536
18.9546
18.9558
18.955
18.9475
34.1139
26.4355
21.7028
19.7711
19.1452
18.963
18.9152
18.9124
18.916
18.9181
18.9218
18.9222
23.6358
21.5343
19.9565
19.2403
18.9809
18.8998
18.8808
18.8798
18.8907
18.8902
18.8872
18.89
20.3219
19.7457
19.2323
18.9824
18.8808
18.8521
18.8484
18.8501
18.8609
18.8635
18.8684
18.916
18.9469
18.9403
18.9406
18.9518
18.9588
18.9639
18.9777
19.0572
19.5579
22.2986
35.3421
87.957
18.9205
18.907
18.907
18.9136
18.9226
18.9345
18.9431
18.9835
19.2124
20.3836
25.278
39.6744
18.8894
18.8747
18.872
18.8769
18.886
18.8968
18.9039
18.9224
19.022
19.4508
21.05
24.7807
18.9133
18.8488
18.8349
18.835
18.8347
18.8441
18.8678
18.8817
18.9143
19.06
19.5487
20.5598
65.4994
39.3116
25.4611
20.7524
19.4082
19.0589
18.9669
18.955
18.9522
18.9485
18.9491
18.941
34.1394
26.4919
21.7245
19.7679
19.1422
18.9667
18.92
18.915
18.9233
18.9095
18.8926
18.8981
23.6592
21.5536
19.9608
19.2328
18.9776
18.8994
18.8782
18.8837
18.8926
18.8795
18.8735
18.8899
20.333
19.7524
19.2352
18.9759
18.8838
18.8492
18.846
18.8552
18.852
18.8531
18.8639
18.9143
18.9371
18.9354
18.9408
18.9416
18.9464
18.9571
18.9754
19.062
19.5584
22.3165
35.4108
88.8645
18.902
18.8978
18.8967
18.9063
18.917
18.9208
18.9319
18.9808
19.212
20.3832
25.2812
39.9377
18.8885
18.8779
18.8721
18.8777
18.8872
18.8988
18.9063
18.9255
19.0177
19.4498
21.0489
24.8418
18.9257
18.8654
18.8385
18.8386
18.8367
18.8477
18.8568
18.8823
18.9198
19.0593
19.5476
20.5742
19.2929
19.0984
18.933
18.8493
18.8176
18.8079
18.8048
18.8047
18.8055
18.8118
18.9037
19.2795
18.9477
18.8704
18.8136
18.7857
18.7746
18.7697
18.7683
18.7689
18.7745
18.84
19.4056
21.1571
18.8229
18.7802
18.7574
18.7471
18.7434
18.7407
18.7399
18.7411
18.7652
19.0698
21.1674
27.2058
18.7671
18.735
18.7236
18.7187
18.7172
18.7157
18.7153
18.7196
18.7945
19.6224
25.0834
44.8782
19.3379
18.9733
18.8334
18.8045
18.8015
18.8048
18.8138
18.8184
18.8326
18.8863
19.0466
19.3327
21.3136
19.5717
18.9273
18.7928
18.7717
18.7716
18.7754
18.7783
18.7841
18.804
18.8533
18.935
27.6423
21.3576
19.2304
18.8144
18.7507
18.7439
18.7454
18.747
18.7491
18.7558
18.7714
18.7982
46.5489
25.1331
19.7942
18.8685
18.7365
18.7209
18.7208
18.7216
18.722
18.7241
18.7282
18.7398
19.296
19.101
18.935
18.851
18.8138
18.7979
18.7953
18.7967
18.7988
18.809
18.9042
19.279
18.9476
18.8719
18.816
18.7858
18.7724
18.7652
18.7637
18.7643
18.7703
18.8373
19.4059
21.1673
18.8215
18.7808
18.7571
18.7465
18.7413
18.7377
18.7371
18.7383
18.7626
19.0678
21.1706
27.2635
18.766
18.7345
18.7226
18.7179
18.7155
18.7132
18.7131
18.7176
18.7926
19.6207
25.095
45.1492
19.3331
18.9718
18.8311
18.8008
18.7985
18.8037
18.8085
18.8178
18.8373
18.8942
19.049
19.324
21.2942
19.568
18.9265
18.7921
18.7715
18.7712
18.7735
18.7787
18.7886
18.8089
18.858
18.9352
27.492
21.3395
19.2288
18.8143
18.751
18.7442
18.7446
18.7473
18.7526
18.7605
18.7762
18.8006
45.7347
25.0911
19.7914
18.8683
18.7367
18.7215
18.7206
18.722
18.7246
18.7273
18.7323
18.7431
19.2856
19.095
18.9348
18.8531
18.8174
18.8058
18.8014
18.8012
18.8048
18.815
18.9074
19.2814
18.9466
18.8701
18.8159
18.7879
18.7746
18.7697
18.7669
18.7671
18.7739
18.8405
19.405
21.1565
18.8235
18.7809
18.7595
18.749
18.7433
18.7409
18.7396
18.7407
18.765
19.0697
21.1676
27.1844
18.7683
18.7356
18.7246
18.7202
18.7176
18.7162
18.7156
18.7196
18.7944
19.6228
25.0834
44.803
19.3412
18.9721
18.8308
18.8011
18.7985
18.8046
18.8134
18.8176
18.8334
18.8879
19.0479
19.3272
21.3139
19.5706
18.9262
18.7923
18.7716
18.7721
18.7751
18.7776
18.7844
18.8047
18.8552
18.9346
27.6791
21.3592
19.2296
18.8143
18.7506
18.7438
18.7446
18.7467
18.7494
18.7565
18.7729
18.7989
46.7863
25.1436
19.7931
18.8682
18.7363
18.7204
18.7198
18.7206
18.7219
18.724
18.7293
18.7408
19.2899
19.0998
18.9342
18.8498
18.8167
18.8032
18.7994
18.8013
18.8016
18.8118
18.9053
19.2847
18.9472
18.8721
18.8164
18.7861
18.7727
18.7669
18.765
18.7657
18.7717
18.8383
19.4061
21.1623
18.8227
18.7816
18.7582
18.7479
18.7416
18.7386
18.738
18.7393
18.7631
19.0672
21.1657
27.2404
18.7673
18.7356
18.7241
18.7193
18.7159
18.7138
18.7134
18.7178
18.7922
19.6181
25.0744
45.0618
19.3401
18.9758
18.8316
18.8021
18.7996
18.805
18.8107
18.8225
18.8376
18.8905
19.0482
19.331
21.2869
19.5676
18.9265
18.7922
18.7718
18.7721
18.7748
18.7801
18.7886
18.8079
18.8581
18.9372
27.4267
21.3316
19.2277
18.8141
18.7508
18.7444
18.7454
18.7483
18.7533
18.7608
18.7764
18.8004
45.4519
25.0704
19.7892
18.8682
18.7366
18.7214
18.7208
18.7221
18.725
18.7278
18.7323
18.7428
18.7349
18.7055
18.6982
18.6956
18.6951
18.6944
18.6942
18.7027
18.8417
20.2945
31.4351
114.718
18.7099
18.6825
18.6763
18.6748
18.6749
18.6748
18.6746
18.685
18.8475
20.4948
32.4539
97.8885
18.6899
18.6629
18.6574
18.6565
18.6569
18.6571
18.6571
18.6672
18.8242
20.4306
32.0552
94.0737
18.6714
18.6456
18.641
18.6406
18.6408
18.6406
18.6406
18.6493
18.7897
20.2728
31.2919
91.9577
18.6555
18.6295
18.6258
18.6255
18.6259
18.6256
18.6257
18.633
18.7546
20.0984
30.4843
89.8254
18.6601
18.6407
18.6382
18.6383
18.6386
18.638
18.6381
18.6438
18.7483
19.9612
29.7453
88.0269
18.8374
18.8343
18.8342
18.8356
18.8356
18.8356
18.8353
18.8399
18.9302
20.0332
29.2448
86.2924
19.9203
19.9808
19.9906
19.9957
19.9956
19.9966
19.9946
19.9973
20.0767
21.0932
29.6821
84.7169
23.777
23.8837
23.8971
23.9188
23.9108
23.9205
23.9087
23.9123
23.975
24.8957
32.4804
82.7112
32.9995
33.0264
33.0408
33.0581
33.0393
33.0513
33.0136
33.0156
33.0414
33.6742
38.9388
77.8124
53.4477
53.5064
53.4627
53.4851
53.358
53.4085
53.246
53.2601
53.1948
53.3932
54.6987
65.9415
122.104
121.959
121.731
121.43
121.093
120.752
120.404
120.044
119.843
119.742
117.954
104.468
114.565
30.9688
20.4401
18.9249
18.7229
18.6994
18.6977
18.6983
18.698
18.6983
18.6995
18.7067
98.6461
32.0744
20.6401
18.9341
18.7063
18.68
18.6776
18.6781
18.6774
18.6775
18.6771
18.6826
94.5938
31.7682
20.5805
18.9077
18.6867
18.6613
18.6592
18.6595
18.6593
18.6583
18.6577
18.6623
92.005
31.0905
20.4241
18.8669
18.6666
18.6444
18.6426
18.6426
18.6421
18.6414
18.6402
18.6447
90.016
30.3546
20.2478
18.8236
18.6471
18.6283
18.6271
18.6264
18.6264
18.6245
18.6242
18.6287
88.1591
29.6613
20.1044
18.8091
18.6549
18.6395
18.6379
18.6378
18.6371
18.6366
18.6356
18.64
86.4691
29.1752
20.1628
18.9823
18.8466
18.8337
18.8318
18.832
18.831
18.831
18.8304
18.8324
84.8827
29.5643
21.1928
20.1143
19.9914
19.9791
19.9752
19.9757
19.9738
19.9756
19.9758
19.9755
83.0381
32.3468
24.946
23.9877
23.8706
23.8619
23.8489
23.8537
23.8456
23.8558
23.8564
23.8486
78.2363
38.9207
33.6754
33.0083
32.9115
32.9054
32.8887
32.8914
32.8946
32.9158
32.9053
32.9071
66.3394
54.6435
53.2734
53.1094
53.0197
53.058
53.0277
53.0639
53.0918
53.1675
53.1166
53.1441
105.012
118.164
119.776
119.887
119.961
120.09
120.284
120.446
120.988
121.086
120.884
121.009
18.7328
18.7051
18.6967
18.6945
18.6933
18.6918
18.6922
18.7012
18.8399
20.2914
31.4265
114.411
18.7082
18.682
18.6759
18.6742
18.6735
18.6726
18.6729
18.6837
18.8458
20.4913
32.4475
97.7474
18.6877
18.6627
18.6575
18.6561
18.6557
18.6552
18.6551
18.6657
18.8224
20.4264
32.0289
93.8032
18.6694
18.6452
18.6416
18.64
18.6394
18.6389
18.6388
18.6479
18.7881
20.2683
31.2592
91.6075
18.6531
18.6298
18.6265
18.6256
18.6245
18.624
18.6239
18.6316
18.753
20.0938
30.4526
89.644
18.6589
18.6407
18.6387
18.6381
18.6376
18.6371
18.637
18.6429
18.7469
19.9572
29.7169
87.9304
18.836
18.8341
18.8348
18.8344
18.8352
18.8344
18.8348
18.8388
18.9293
20.0295
29.2188
86.2541
19.9201
19.9815
19.9929
19.9936
19.9973
19.9958
19.996
19.997
20.0772
21.0909
29.6615
84.6988
23.784
23.8852
23.9089
23.9053
23.9215
23.9119
23.9176
23.9076
23.9807
24.8932
32.4679
82.7522
32.9984
33.0106
33.0109
33.006
33.0209
33.0026
33.0097
32.9821
33.0311
33.6488
38.9075
77.7597
53.4307
53.3979
53.2797
53.2168
53.229
53.1441
53.1885
53.0795
53.1072
53.2433
54.6007
65.7932
121.982
121.691
121.465
121.264
120.761
120.486
120.48
120.086
119.901
119.792
118.003
104.531
114.446
30.9644
20.4386
18.925
18.7232
18.7
18.6981
18.6992
18.7009
18.7014
18.7029
18.7092
98.2895
32.0713
20.6404
18.9342
18.7068
18.6807
18.6781
18.679
18.6795
18.6791
18.6792
18.6852
94.3406
31.7696
20.5815
18.908
18.687
18.6618
18.6593
18.6601
18.6602
18.6594
18.6598
18.6645
91.8655
31.0953
20.4256
18.8673
18.6671
18.6446
18.6425
18.6429
18.6428
18.6418
18.6415
18.6471
89.9039
30.3606
20.2491
18.8241
18.6473
18.6283
18.6266
18.6272
18.6274
18.6262
18.6265
18.6306
88.0626
29.6669
20.1058
18.8095
18.6555
18.6395
18.6379
18.6384
18.6381
18.6375
18.6373
18.6425
86.3883
29.1822
20.1642
18.9827
18.847
18.8337
18.832
18.8326
18.8321
18.8321
18.8329
18.8344
84.7856
29.5711
21.1928
20.1139
19.9914
19.9787
19.9755
19.9758
19.9745
19.9755
19.977
19.9771
82.9153
32.3451
24.9418
23.9838
23.8698
23.8598
23.8497
23.8523
23.8483
23.8533
23.8573
23.8494
78.1376
38.8905
33.6524
32.9942
32.9112
32.9086
32.8881
32.8917
32.9026
32.9246
32.9144
32.9171
66.3146
54.517
53.2073
53.0709
53.0413
53.0945
53.0535
53.0889
53.1406
53.2473
53.1893
53.207
104.892
118.02
119.643
119.819
119.953
120.119
120.575
120.718
121.112
121.679
121.323
120.993
18.7355
18.7058
18.6983
18.6966
18.6956
18.6947
18.6943
18.7027
18.8416
20.2955
31.4476
114.684
18.7107
18.6829
18.677
18.6762
18.6756
18.6747
18.6744
18.6846
18.8473
20.496
32.4655
97.8731
18.6904
18.6634
18.6583
18.6578
18.6576
18.6568
18.6567
18.6666
18.824
20.4316
32.0683
94.0618
18.6719
18.6461
18.6416
18.6409
18.6411
18.6405
18.6404
18.6488
18.7896
20.2738
31.302
91.9391
18.6561
18.6302
18.6263
18.6254
18.626
18.6257
18.6254
18.6325
18.7543
20.0992
30.4947
89.8162
18.6609
18.6414
18.6385
18.6382
18.6387
18.6384
18.638
18.6435
18.7482
19.9621
29.7544
88.0258
18.8382
18.8346
18.8348
18.8352
18.8357
18.8357
18.8351
18.8395
18.9301
20.0337
29.2542
86.2887
19.9209
19.9807
19.9914
19.9946
19.9957
19.996
19.9945
19.9967
20.0765
21.0932
29.6892
84.7098
23.7835
23.8802
23.9025
23.9126
23.9131
23.9158
23.9103
23.9083
23.9755
24.892
32.4843
82.7063
33.0149
33.0164
33.0459
33.0391
33.037
33.0369
33.0139
33.0054
33.0384
33.6602
38.9315
77.8057
53.5196
53.4707
53.4783
53.3953
53.3351
53.3471
53.2446
53.218
53.1862
53.3318
54.6603
65.9326
122.105
121.923
121.649
121.007
120.695
120.699
120.373
120.099
119.899
119.73
117.946
104.464
114.578
30.9722
20.437
18.9248
18.7229
18.6992
18.6973
18.6975
18.6984
18.6986
18.7002
18.7075
98.6193
32.0727
20.6371
18.9339
18.7063
18.6799
18.6774
18.6777
18.6778
18.6771
18.6773
18.6832
94.5613
31.7641
20.579
18.9078
18.6867
18.6613
18.6589
18.6594
18.6592
18.6581
18.6579
18.663
91.9731
31.0852
20.4236
18.867
18.6667
18.6442
18.6419
18.6427
18.6424
18.6416
18.6408
18.6452
90.0012
30.3517
20.2473
18.8238
18.6472
18.6281
18.6262
18.6269
18.627
18.6255
18.6251
18.6293
88.1566
29.6588
20.1041
18.8092
18.6551
18.6392
18.6375
18.6383
18.6378
18.637
18.6362
18.6405
86.4651
29.1732
20.1629
18.9824
18.8468
18.8334
18.8318
18.8323
18.8314
18.8307
18.8308
18.833
84.875
29.5623
21.1929
20.1142
19.9916
19.9786
19.9754
19.9753
19.974
19.9747
19.9754
19.9754
83.0271
32.3444
24.9485
23.9859
23.8726
23.8586
23.8513
23.8499
23.8474
23.8521
23.8552
23.8476
78.2251
38.9193
33.6775
33.0028
32.9124
32.8977
32.8923
32.8855
32.8959
32.8962
32.8941
32.9085
66.3344
54.6352
53.2761
53.0788
53.0209
53.0223
53.0548
53.0582
53.0824
53.0864
53.0637
53.1621
104.99
118.134
119.747
119.857
119.949
120.106
120.49
120.64
120.702
120.834
120.923
121.03
18.7341
18.7057
18.698
18.696
18.694
18.6926
18.6923
18.7009
18.8393
20.2867
31.3697
114.448
18.7092
18.6826
18.6764
18.675
18.6741
18.6731
18.6729
18.6831
18.8451
20.4865
32.4045
97.7097
18.6887
18.6632
18.6577
18.6565
18.656
18.6556
18.6555
18.6652
18.822
20.4233
32.0016
93.8584
18.6704
18.6455
18.6413
18.6406
18.64
18.6394
18.6393
18.6476
18.7878
20.2662
31.2474
91.6266
18.654
18.6301
18.6263
18.6258
18.625
18.6247
18.6247
18.6314
18.753
20.0928
30.4454
89.6686
18.6595
18.6412
18.6391
18.6386
18.6381
18.6376
18.6375
18.6428
18.7469
19.9566
29.7154
87.9064
18.8366
18.8346
18.8353
18.835
18.8357
18.8347
18.8352
18.8386
18.9294
20.0292
29.2196
86.2517
19.92
19.981
19.9923
19.9939
19.9972
19.9953
19.9959
19.9962
20.0772
21.0902
29.6637
84.6738
23.7822
23.8818
23.9048
23.9061
23.9205
23.9097
23.9174
23.9041
23.9814
24.89
32.4711
82.7178
32.9997
33.0048
33.0245
33.029
33.0346
33.0123
33.0188
32.9829
33.0389
33.6438
38.9116
77.7382
53.4516
53.3964
53.347
53.339
53.3173
53.2069
53.2341
53.0985
53.1509
53.2326
54.6121
65.7901
122.024
121.758
121.528
121.344
121.092
120.768
120.458
120.077
119.888
119.752
117.973
104.493
114.44
30.9544
20.4365
18.9248
18.7234
18.6996
18.6979
18.6986
18.7003
18.7014
18.7029
18.7088
98.2617
32.0667
20.6381
18.9341
18.7069
18.6801
18.6777
18.6785
18.6787
18.6787
18.6788
18.685
94.3245
31.7677
20.5803
18.9079
18.6871
18.6614
18.6591
18.6601
18.6604
18.6595
18.6597
18.6642
91.8632
31.0957
20.4251
18.8674
18.6672
18.6447
18.6426
18.6433
18.6432
18.6421
18.6416
18.6471
89.8984
30.3622
20.2487
18.8242
18.6475
18.6287
18.6269
18.6275
18.6277
18.6263
18.6265
18.6303
88.0632
29.6705
20.1061
18.8097
18.6557
18.64
18.6382
18.6383
18.638
18.6376
18.6373
18.6422
86.3866
29.1893
20.1642
18.9831
18.8469
18.8344
18.8318
18.8327
18.8313
18.8318
18.8326
18.8341
84.7883
29.5804
21.1924
20.1142
19.9905
19.9791
19.9742
19.9756
19.9724
19.9748
19.9763
19.9763
82.9069
32.3574
24.9373
23.9859
23.8639
23.8622
23.8419
23.8553
23.8391
23.8551
23.8564
23.8468
78.1524
38.9056
33.6475
33.0037
32.9057
32.917
32.8873
32.9081
32.8817
32.9328
32.9259
32.9003
66.3463
54.5479
53.2055
53.1263
53.0428
53.1544
53.0653
53.1684
53.0661
53.2855
53.2448
53.1491
104.906
118.021
119.653
119.812
119.971
120.105
120.594
120.717
120.701
121.249
121.289
120.993
)
;

boundaryField
{
    rotor
    {
        type            epsilonWallFunction;
        Cmu             0.09;
        kappa           0.41;
        E               9.8;
        value           nonuniform List<scalar> 
192
(
264.203
193.812
202.759
207.54
206.102
208.559
205.914
208.101
205.407
209.857
215.709
216.773
215.068
215.964
214.511
215.46
216.681
223.088
222.495
220.899
213.398
200.884
182.771
261.273
342.779
201.426
204.017
207.831
205.619
211.15
217.322
216.168
204.65
209.751
219.107
223.675
214.193
208.606
215.848
216.954
218.263
225.08
224.392
222.821
214.793
201.909
184.29
264.818
264.322
193.834
202.791
207.51
206.097
208.523
205.916
210.641
216.347
217.523
215.613
216.778
217.644
222.134
213.089
207.503
216.887
223.189
222.613
220.999
213.487
200.955
182.891
261.559
264.157
193.318
202.611
206.978
205.813
207.659
207.632
219.325
220.989
216.594
214.658
215.821
214.497
215.648
216.835
223.636
221.159
216.786
217.428
221.475
214.156
201.72
183.961
263.254
264.203
260.181
231.781
205.41
195.23
184.829
177.387
171.515
167.467
156.725
151.646
179.757
263.254
261.187
232.096
206.229
196.213
183.676
176.043
171.687
169.972
164.509
164.028
172.593
342.779
248.15
220.383
204.343
191.543
185.785
178.094
174.093
168.965
158.939
152.384
180.732
261.273
259.549
232.305
212.933
200.407
184.129
176.164
172.404
170.228
167.191
165.674
171.675
264.322
260.277
231.499
211.751
200.441
185.424
177.173
167.391
165.379
157.454
152.157
179.806
264.818
262.429
232.571
206.342
196.887
184.657
176.233
171.435
169.635
162.516
164.181
173.87
264.157
259.791
231.022
205.167
194.869
186.194
174.701
167.568
158.478
153.455
152.343
180.512
261.559
259.801
231.683
206.443
196.024
184.094
176.023
171.858
169.644
166.617
166.335
173.154
)
;
    }
    stator
    {
        type            epsilonWallFunction;
        Cmu             0.09;
        kappa           0.41;
        E               9.8;
        value           nonuniform List<scalar> 
192
(
122.104
121.959
121.731
121.43
121.093
120.752
120.404
120.044
119.843
119.742
117.954
104.468
105.012
118.164
119.776
119.887
119.961
120.09
120.284
120.446
120.988
121.086
120.884
121.009
121.982
121.691
121.465
121.264
120.761
120.486
120.48
120.086
119.901
119.792
118.003
104.531
104.892
118.02
119.643
119.819
119.953
120.119
120.575
120.718
121.112
121.679
121.323
120.993
122.105
121.923
121.649
121.007
120.695
120.699
120.373
120.099
119.899
119.73
117.946
104.464
104.99
118.134
119.747
119.857
119.949
120.106
120.49
120.64
120.702
120.834
120.923
121.03
122.024
121.758
121.528
121.344
121.092
120.768
120.458
120.077
119.888
119.752
117.973
104.493
104.906
118.021
119.653
119.812
119.971
120.105
120.594
120.717
120.701
121.249
121.289
120.993
114.565
98.6461
94.5938
92.005
90.016
88.1591
86.4691
84.8827
83.0381
78.2363
66.3394
105.012
114.718
97.8885
94.0737
91.9577
89.8254
88.0269
86.2924
84.7169
82.7112
77.8124
65.9415
104.468
114.446
98.2895
94.3406
91.8655
89.9039
88.0626
86.3883
84.7856
82.9153
78.1376
66.3146
104.892
114.411
97.7474
93.8032
91.6075
89.644
87.9304
86.2541
84.6988
82.7522
77.7597
65.7932
104.531
114.578
98.6193
94.5613
91.9731
90.0012
88.1566
86.4651
84.875
83.0271
78.2251
66.3344
104.99
114.684
97.8731
94.0618
91.9391
89.8162
88.0258
86.2887
84.7098
82.7063
77.8057
65.9326
104.464
114.44
98.2617
94.3245
91.8632
89.8984
88.0632
86.3866
84.7883
82.9069
78.1524
66.3463
104.906
114.448
97.7097
93.8584
91.6266
89.6686
87.9064
86.2517
84.6738
82.7178
77.7382
65.7901
104.493
)
;
    }
    front
    {
        type            empty;
    }
    back
    {
        type            empty;
    }
}


// ************************************************************************* //
