/*--------------------------------*- C++ -*----------------------------------*\
  =========                 |
  \\      /  F ield         | OpenFOAM: The Open Source CFD Toolbox
   \\    /   O peration     | Website:  https://openfoam.org
    \\  /    A nd           | Version:  6
     \\/     M anipulation  |
\*---------------------------------------------------------------------------*/
FoamFile
{
    version     2.0;
    format      ascii;
    class       volScalarField;
    location    "2000";
    object      epsilon;
}
// * * * * * * * * * * * * * * * * * * * * * * * * * * * * * * * * * * * * * //

dimensions      [0 2 -3 0 0 0 0];

internalField   nonuniform List<scalar> 
3072
(
151.201
133.108
149.585
162.758
162.473
167.723
164.722
167.193
158.933
161.232
167.37
172.975
170.052
83.4839
72.9591
67.0278
62.8962
60.9192
59.5128
58.8777
58.1122
58.0823
58.3191
58.5156
151.127
72.6215
49.5078
37.6136
32.1391
29.8559
28.9289
28.5744
28.4139
28.3776
28.3958
28.4259
135.167
67.0114
42.1962
29.7663
24.4828
22.4339
21.6914
21.435
21.3477
21.3281
21.33
21.3373
129.416
64.775
39.3767
27.2259
22.315
20.5033
19.8818
19.682
19.6193
19.6024
19.5984
19.5998
123.367
62.3582
37.6151
26.013
21.4995
19.8972
19.3718
19.2069
19.1583
19.142
19.1406
19.1394
121.217
60.9068
36.3812
25.2301
21.0548
19.6318
19.1769
19.0416
18.9984
18.99
18.9852
18.9881
113.411
59.7322
35.5119
24.668
20.7536
19.4645
19.0664
18.9482
18.9127
18.9016
18.8984
18.8989
113.575
59.8642
35.1034
24.2979
20.5375
19.34
18.9808
18.8769
18.8481
18.8354
18.8324
18.8308
104.691
60.4328
35.033
24.0664
20.3769
19.2393
18.9069
18.8184
18.8
18.7821
18.7715
18.7686
104.59
63.6804
35.0694
23.7955
20.2045
19.1409
18.8371
18.7656
18.7537
18.7316
18.7227
18.7252
151.076
68.5385
33.5581
23.0167
19.9065
19.0134
18.7605
18.7058
18.7009
18.6815
18.6686
18.6699
169.106
169.355
161.824
159.255
164.191
169.895
164.522
160.601
153.213
139.24
115.698
141.238
58.3339
58.3082
57.9644
57.9134
58.1185
58.4118
58.4278
59.6203
63.9693
72.8452
91.7664
157.226
28.4285
28.4351
28.4182
28.4179
28.4375
28.5202
28.9007
30.5771
35.9468
48.5765
75.4793
152.613
21.3415
21.3466
21.3487
21.3533
21.3624
21.4164
21.7248
23.1089
27.7769
39.7785
66.7241
144.09
19.6002
19.6011
19.6012
19.6039
19.6104
19.6494
19.8859
20.9998
25.0234
36.1299
62.4953
135.665
19.1426
19.1417
19.1406
19.138
19.1418
19.17
19.3511
20.2509
23.7084
33.8744
59.0229
124.469
18.9899
18.9904
18.987
18.9866
18.9852
19.0061
19.145
19.8743
22.8553
32.1109
55.6799
120.042
18.9033
18.9049
18.9031
18.9003
18.9025
18.9216
19.0337
19.6311
22.2091
30.6999
53.2668
117.717
18.8303
18.8358
18.8378
18.8365
18.8386
18.8587
18.9518
19.4419
21.6801
29.4358
51.0232
119.736
18.7669
18.7732
18.7775
18.777
18.7797
18.7996
18.8809
19.2888
21.2109
28.2995
49.3276
119.237
18.7126
18.71
18.7204
18.7225
18.7229
18.7388
18.8125
19.15
20.769
27.1093
47.8192
124.72
18.6598
18.6515
18.661
18.6669
18.6671
18.6814
18.745
19.0068
20.2717
25.6861
47.2046
143.483
277.959
147.881
156.55
165.85
160.13
166.917
165.678
167.702
159.076
160.899
169.017
172.29
160.181
83.0483
71.0796
64.6818
60.9643
59.532
58.6577
58.1965
57.5246
57.665
58.1153
58.3322
144.032
71.9663
49.0366
37.1399
31.7736
29.6068
28.7697
28.4555
28.3083
28.297
28.342
28.3769
134.308
67.382
42.1559
29.6567
24.3968
22.3752
21.6515
21.4056
21.3227
21.3076
21.3143
21.3245
125.239
64.4442
39.2838
27.1609
22.2811
20.478
19.8679
19.6691
19.6139
19.5947
19.5954
19.5933
123.343
62.4106
37.5726
25.9876
21.4772
19.8899
19.3596
19.2059
19.1547
19.1488
19.1381
19.1434
115.523
60.5291
36.3086
25.2024
21.0474
19.624
19.1748
19.0358
18.998
18.9865
18.9853
18.9795
115.713
59.0736
35.3669
24.6332
20.745
19.4605
19.0644
18.9463
18.9133
18.9069
18.9003
18.8941
109.573
58.8466
34.8567
24.2522
20.5292
19.3391
18.981
18.8766
18.8456
18.8404
18.8355
18.8335
104.774
59.5056
34.8506
24.0251
20.3675
19.238
18.9062
18.8103
18.7831
18.7798
18.7771
18.7769
104.78
63.3492
34.989
23.7722
20.1967
19.1377
18.836
18.7522
18.7289
18.7274
18.7195
18.7147
152.976
68.7457
33.609
23.0141
19.9016
19.0096
18.7582
18.691
18.6788
18.681
18.6766
18.6636
164.882
164.097
159.118
162.917
168.087
174.483
168.069
163.456
155.186
141.001
117.766
146.077
57.9065
57.7891
57.7391
58.0059
58.2987
58.6569
58.6413
59.751
63.8856
72.4614
91.5571
159.869
28.3607
28.3633
28.3749
28.4082
28.4487
28.5527
28.9377
30.6009
35.9298
48.5337
75.7472
153.672
21.3277
21.3332
21.3387
21.3475
21.3607
21.4193
21.7294
23.1102
27.7503
39.6069
65.8166
142.1
19.5977
19.5964
19.6012
19.6024
19.6122
19.6496
19.8891
20.9985
24.9985
35.9874
61.8276
134.052
19.1358
19.1408
19.136
19.1416
19.141
19.173
19.3514
20.2527
23.702
33.7792
58.6847
123.096
18.9781
18.978
18.9827
18.9829
18.9834
19.0034
19.1466
19.8742
22.8471
32.0499
55.2851
119.86
18.8925
18.8966
18.9002
18.901
18.9021
18.9196
19.0306
19.6284
22.2024
30.619
53.0544
116.345
18.8288
18.8279
18.8315
18.8302
18.835
18.8542
18.9487
19.4389
21.6627
29.3907
50.7165
119.94
18.775
18.7729
18.7719
18.7697
18.7745
18.7949
18.8795
19.2871
21.1962
28.2271
49.3268
119.612
18.7202
18.7181
18.7119
18.7113
18.7225
18.7435
18.8167
19.151
20.7542
27.0782
47.6904
123.941
18.6635
18.6586
18.6557
18.662
18.6715
18.6914
18.752
19.0116
20.2677
25.6425
47.0665
142.841
151.634
133.464
149.828
163.117
162.789
166.78
159.083
162.51
168.672
173.449
164.108
162.663
170.454
83.629
73.0789
67.1629
63.0061
60.9246
59.335
58.8967
58.8531
58.8289
58.2939
58.1727
156.059
73.0008
49.5907
37.6554
32.1663
29.869
28.9276
28.5892
28.4812
28.4516
28.4157
28.4124
142.988
67.7046
42.3269
29.8041
24.4955
22.4389
21.6937
21.4396
21.3588
21.3417
21.3379
21.3396
135.013
65.308
39.4913
27.257
22.3244
20.5061
19.8834
19.6847
19.6246
19.6092
19.6031
19.6012
126.158
62.5383
37.6807
26.0371
21.5081
19.9001
19.3744
19.2115
19.1673
19.1538
19.148
19.1406
120.578
60.7519
36.4067
25.2535
21.0644
19.6359
19.1802
19.0486
19.0106
19.0017
18.9888
18.9849
112.105
59.5336
35.5416
24.6923
20.7628
19.4682
19.07
18.9578
18.9279
18.9122
18.9009
18.8994
112.655
59.7857
35.1498
24.3227
20.5443
19.3425
18.9833
18.886
18.8637
18.8464
18.8364
18.8332
104.587
60.3471
35.0625
24.0738
20.3758
19.2376
18.9059
18.8187
18.8023
18.7876
18.7756
18.7739
104.605
63.054
35.0278
23.7808
20.1968
19.1343
18.8318
18.7562
18.7416
18.7364
18.734
18.7311
150.307
68.6101
33.5398
23.0044
19.8971
19.005
18.755
18.7026
18.6974
18.6926
18.6817
18.6757
166.457
169.347
161.79
161.416
164.201
169.759
164.246
160.765
153.338
139.368
115.853
141.805
58.2936
58.4094
57.9454
57.8542
58.1036
58.4235
58.4341
59.6286
63.9525
72.7831
91.6807
157.489
28.4297
28.4446
28.412
28.4073
28.4432
28.5347
28.9105
30.5795
35.9385
48.5474
75.4203
152.159
21.3432
21.346
21.3444
21.3487
21.3613
21.4186
21.7267
23.1061
27.7598
39.6771
66.1611
141.088
19.6004
19.6013
19.6007
19.6025
19.6088
19.6487
19.8854
20.9969
25.0069
36.0546
62.0536
132.694
19.1415
19.1405
19.1391
19.1356
19.1391
19.1688
19.3516
20.2489
23.7099
33.8562
58.9273
123.468
18.9813
18.9842
18.9834
18.9833
18.9829
19.006
19.1468
19.8759
22.8611
32.1402
55.825
119.729
18.8969
18.8987
18.8998
18.898
18.899
18.9183
19.0349
19.6322
22.2098
30.7129
53.3303
117.531
18.8291
18.8339
18.8364
18.8371
18.8383
18.8554
18.9507
19.4422
21.6695
29.4344
51.1197
119.428
18.7731
18.7701
18.7685
18.7773
18.7844
18.7997
18.8795
19.2867
21.1924
28.2541
49.3091
119.179
18.7253
18.7234
18.7143
18.716
18.7238
18.74
18.8121
19.1453
20.7518
27.056
47.7745
124.356
18.6671
18.6632
18.6607
18.6635
18.6752
18.6905
18.7487
19.0044
20.2632
25.6462
47.0744
143.709
151.632
132.651
148.731
160.383
156.892
163.111
163.181
172.332
171.543
171.224
167.134
168.503
169.997
83.4236
72.8933
66.8391
62.5507
60.6057
59.4726
59.3514
58.9612
58.5892
58.1936
58.1456
150.348
72.4923
49.4765
37.5914
32.1074
29.8237
28.9195
28.6114
28.4886
28.4321
28.398
28.3963
135.076
66.8999
42.1755
29.7629
24.4777
22.4273
21.6872
21.437
21.357
21.3355
21.3318
21.3352
129.26
64.6631
39.3707
27.2279
22.3168
20.499
19.8801
19.679
19.6217
19.603
19.6012
19.5983
122.943
62.2875
37.6203
26.0297
21.5008
19.8996
19.3674
19.2105
19.1602
19.1532
19.1433
19.1455
115.881
60.3121
36.3463
25.2436
21.064
19.6315
19.1784
19.041
19.0035
18.9935
18.9939
18.9869
114.201
59.3113
35.5162
24.6892
20.7627
19.4667
19.067
18.9489
18.9173
18.9108
18.9067
18.9053
106.743
59.4428
35.1216
24.3267
20.5483
19.3454
18.9834
18.8771
18.8513
18.8471
18.8362
18.8303
104.595
60.3148
35.1135
24.0936
20.3844
19.2441
18.9093
18.8128
18.7848
18.779
18.7729
18.7686
104.006
63.253
35.1234
23.8122
20.2085
19.1427
18.8389
18.7572
18.7365
18.7225
18.7135
18.7101
149.876
68.8533
33.6611
23.0306
19.9061
19.0128
18.7608
18.6958
18.6778
18.6735
18.6767
18.6719
162.005
160.988
165.539
170.218
166.997
167.587
166.549
167.379
154.675
140.739
117.423
143.791
57.871
57.9152
58.1622
58.4679
58.3074
58.2515
58.4356
59.8872
64.0355
72.7821
91.7002
158.655
28.3818
28.3853
28.4059
28.4456
28.4594
28.5269
28.9156
30.6004
35.9363
48.5398
75.5565
152.669
21.333
21.3324
21.3377
21.3501
21.3639
21.4197
21.7294
23.1096
27.7512
39.6201
65.8741
140.551
19.6005
19.5982
19.6015
19.6033
19.6125
19.65
19.8889
20.9976
24.9944
35.9637
61.5792
130.206
19.1397
19.1412
19.1356
19.1404
19.1414
19.173
19.3518
20.2485
23.6907
33.7297
58.4339
120.174
18.9847
18.9772
18.9739
18.9725
18.9759
19.0005
19.1446
19.8708
22.8339
31.9917
54.9128
120.219
18.9043
18.893
18.8882
18.8898
18.891
18.9134
19.0282
19.6254
22.2005
30.5971
52.9589
116.451
18.8338
18.8261
18.8252
18.829
18.8308
18.8486
18.9449
19.4372
21.6681
29.3947
50.6401
120.032
18.7742
18.7716
18.7731
18.778
18.7805
18.7954
18.8759
19.285
21.2076
28.2698
49.4428
119.559
18.7103
18.7164
18.7209
18.7215
18.7255
18.7449
18.8147
19.1484
20.7604
27.107
47.8187
124.16
18.6604
18.6538
18.6563
18.6634
18.6727
18.692
18.7514
19.0104
20.2735
25.6806
47.2587
142.679
66.9616
41.9304
27.3314
21.4137
19.4516
18.8566
18.6812
18.6467
18.6477
18.6273
18.6218
18.6169
36.9953
28.5963
22.7797
20.043
19.0378
18.7103
18.6087
18.5951
18.6013
18.5784
18.5745
18.5804
25.2148
22.5833
20.3534
19.2082
18.7556
18.6004
18.5509
18.5463
18.5551
18.5367
18.5372
18.563
20.8494
20.0374
19.2177
18.7693
18.5842
18.5191
18.5068
18.5022
18.5052
18.5097
18.5433
18.6556
18.6128
18.6137
18.62
18.6275
18.6247
18.6331
18.6787
18.8511
19.6431
23.0811
36.4355
77.3268
18.5721
18.5658
18.5746
18.5849
18.5866
18.5889
18.6148
18.7157
19.121
20.7905
26.6371
41.4234
18.5505
18.5321
18.5309
18.5373
18.5438
18.547
18.5659
18.6164
18.7983
19.4897
21.6969
26.308
18.6643
18.5488
18.5034
18.4926
18.4857
18.4933
18.5125
18.5367
18.6144
18.8787
19.6566
21.106
67.2914
42.0782
27.3675
21.4197
19.4498
18.8524
18.677
18.6405
18.6367
18.6326
18.6279
18.6163
37.106
28.6653
22.812
20.0513
19.0358
18.702
18.5994
18.5769
18.5719
18.5703
18.5788
18.5694
25.2623
22.6178
20.3684
19.2162
18.7507
18.585
18.5385
18.5345
18.536
18.5288
18.5392
18.5465
20.8668
20.0509
19.2296
18.7747
18.5761
18.4989
18.4792
18.4757
18.4772
18.4843
18.5301
18.6433
18.6141
18.6115
18.613
18.6184
18.62
18.6348
18.6819
18.8548
19.6411
23.0567
36.2853
76.8201
18.5612
18.5692
18.5746
18.5741
18.5762
18.5865
18.6183
18.7186
19.1232
20.7774
26.5466
41.0413
18.5415
18.5295
18.5181
18.5212
18.5293
18.5401
18.5594
18.6128
18.7997
19.4919
21.6637
26.162
18.6552
18.5452
18.4886
18.482
18.4857
18.4915
18.5018
18.5299
18.6136
18.8829
19.6493
21.0561
66.6988
41.8475
27.3101
21.4075
19.4454
18.8491
18.6772
18.6447
18.6364
18.6344
18.6354
18.6246
36.7696
28.5261
22.7621
20.0423
19.0337
18.7029
18.6027
18.586
18.5833
18.5783
18.5793
18.5867
25.1194
22.5426
20.3438
19.2114
18.753
18.5918
18.543
18.5374
18.548
18.55
18.5537
18.5693
20.8134
20.0184
19.2143
18.7731
18.5801
18.5103
18.4944
18.4898
18.4914
18.4989
18.5453
18.6615
18.6229
18.6218
18.6176
18.6193
18.6268
18.6411
18.6843
18.8507
19.6383
23.0525
36.2521
76.5337
18.5902
18.5721
18.5636
18.5681
18.5772
18.593
18.6228
18.7184
19.1194
20.7772
26.5449
40.9591
18.57
18.5369
18.5252
18.527
18.5292
18.5411
18.5602
18.6129
18.7984
19.4888
21.6652
26.159
18.6732
18.549
18.4984
18.4928
18.4848
18.486
18.5053
18.5325
18.6139
18.8795
19.6476
21.061
67.0165
42.0096
27.3609
21.4209
19.4485
18.8544
18.6806
18.639
18.6349
18.632
18.6289
18.6154
36.7938
28.5864
22.7913
20.0451
19.0331
18.7058
18.6082
18.5917
18.5964
18.5779
18.5674
18.5681
25.1349
22.5679
20.3539
19.2094
18.7516
18.5924
18.5521
18.5455
18.5467
18.5342
18.5355
18.5627
20.824
20.0301
19.221
18.7706
18.5813
18.5092
18.4981
18.5056
18.4957
18.4923
18.5374
18.6516
18.6061
18.6047
18.6067
18.6091
18.6177
18.6352
18.6814
18.8534
19.6441
23.0895
36.4783
77.8135
18.5687
18.5618
18.5603
18.5658
18.5723
18.5845
18.6161
18.7165
19.1227
20.7918
26.6355
41.4425
18.5623
18.5342
18.5275
18.5298
18.5301
18.5414
18.5594
18.6142
18.7995
19.4946
21.6959
26.2903
18.6732
18.5602
18.5014
18.4958
18.4904
18.4916
18.5003
18.534
18.6177
18.8842
19.6575
21.0982
19.2934
18.9943
18.706
18.5441
18.4747
18.4488
18.4407
18.4384
18.4427
18.4813
18.7072
19.2504
18.7217
18.6002
18.4935
18.4343
18.4079
18.3964
18.3923
18.3926
18.4137
18.5844
19.4559
21.3831
18.5007
18.4384
18.3947
18.3719
18.3616
18.3562
18.3543
18.359
18.4245
18.938
21.4437
26.7845
18.4031
18.3608
18.3394
18.3295
18.3253
18.3227
18.3221
18.3346
18.4797
19.5907
25.0125
40.2003
19.3091
18.7783
18.5187
18.4495
18.4365
18.4401
18.4511
18.4634
18.4976
18.6054
18.8872
19.3448
21.5298
19.58
18.6768
18.4448
18.4006
18.3971
18.4017
18.408
18.4231
18.4645
18.5634
18.711
27.0742
21.4738
19.0636
18.4824
18.3754
18.3609
18.3619
18.365
18.3711
18.3875
18.4212
18.4729
41.3676
24.9098
19.6773
18.5528
18.3579
18.33
18.3281
18.3296
18.332
18.3375
18.3497
18.3715
19.2995
19.0018
18.7105
18.5469
18.4709
18.4389
18.43
18.4286
18.433
18.4743
18.705
19.2519
18.7233
18.604
18.4979
18.4348
18.4052
18.3911
18.3868
18.3874
18.4091
18.5811
19.4586
21.3961
18.5002
18.4403
18.3949
18.3716
18.3595
18.3528
18.351
18.356
18.4219
18.9363
21.4515
26.8252
18.402
18.3612
18.3397
18.3285
18.323
18.3196
18.3193
18.3322
18.4775
19.5891
25.0189
40.3309
19.298
18.7734
18.5136
18.4453
18.435
18.4384
18.4457
18.4621
18.5014
18.6112
18.8876
19.329
21.4893
19.5689
18.6736
18.4431
18.3995
18.3958
18.3996
18.4087
18.4275
18.4705
18.5669
18.7081
26.8978
21.4425
19.0587
18.4813
18.3749
18.3607
18.3612
18.3659
18.3752
18.3923
18.4261
18.4743
40.6995
24.8511
19.6713
18.552
18.3579
18.3305
18.3284
18.3308
18.3353
18.342
18.3539
18.3743
19.2804
18.9876
18.706
18.5468
18.4739
18.4458
18.4362
18.4338
18.4395
18.481
18.7094
19.2521
18.7177
18.5984
18.4948
18.4362
18.4078
18.3957
18.3906
18.3907
18.4128
18.5845
19.4557
21.3815
18.4999
18.4383
18.3961
18.3735
18.3617
18.3562
18.3538
18.3584
18.4242
18.938
21.4426
26.7829
18.4034
18.3611
18.3403
18.3308
18.3258
18.323
18.3222
18.3345
18.4797
19.5911
25.0156
40.2205
19.3132
18.7778
18.5164
18.448
18.4349
18.4385
18.4493
18.4621
18.498
18.6062
18.8857
19.3323
21.5366
19.5803
18.6758
18.4443
18.4002
18.397
18.4011
18.4074
18.4234
18.4655
18.5642
18.7084
27.0912
21.4762
19.063
18.4822
18.3751
18.3607
18.3613
18.3646
18.3715
18.3881
18.4227
18.4733
41.3925
24.9149
19.6764
18.5526
18.3577
18.3297
18.3274
18.329
18.3322
18.3381
18.351
18.3726
19.2863
18.995
18.7081
18.5454
18.4736
18.4442
18.4364
18.4369
18.4384
18.4775
18.7069
19.2546
18.7204
18.6026
18.4972
18.4355
18.4066
18.3937
18.3893
18.3901
18.4108
18.5819
19.4566
21.3832
18.5007
18.4409
18.3966
18.3732
18.3605
18.3543
18.3524
18.3572
18.4222
18.9349
21.4403
26.7733
18.4035
18.3626
18.3413
18.3305
18.3243
18.3209
18.3203
18.3328
18.4771
19.5847
24.9897
40.1476
19.3012
18.7774
18.5165
18.4487
18.4367
18.4394
18.4473
18.4658
18.503
18.6109
18.8911
19.3437
21.4712
19.5649
18.6736
18.4441
18.4009
18.3973
18.4012
18.4107
18.4285
18.4708
18.5688
18.7131
26.8468
21.43
19.0568
18.4815
18.3754
18.3614
18.3623
18.3672
18.3762
18.3931
18.4272
18.4758
40.6305
24.831
19.6682
18.552
18.3583
18.3309
18.329
18.3314
18.336
18.3428
18.3546
18.3747
18.3507
18.3147
18.3016
18.297
18.2954
18.294
18.2943
18.3149
18.5427
20.2567
30.0584
90.5763
18.3146
18.2816
18.2717
18.2691
18.2686
18.2682
18.269
18.293
18.552
20.4491
30.4899
67.2495
18.2867
18.2549
18.2466
18.245
18.2451
18.245
18.2461
18.2693
18.5213
20.3796
30.0951
63.0145
18.2632
18.2332
18.2265
18.2257
18.226
18.2258
18.2265
18.2468
18.4748
20.2092
29.4917
61.6626
18.2531
18.225
18.2197
18.2195
18.2199
18.2194
18.22
18.237
18.4377
20.0274
28.8647
60.5044
18.3175
18.2999
18.2972
18.2978
18.2978
18.2974
18.2978
18.3117
18.4869
19.939
28.3369
59.6548
18.7155
18.721
18.7231
18.726
18.726
18.7263
18.7256
18.737
18.8904
20.2205
28.1308
58.8092
20.1454
20.1883
20.1992
20.2069
20.2064
20.2081
20.2043
20.2126
20.3456
21.5493
28.7464
57.6872
23.833
23.8858
23.8982
23.9161
23.9076
23.9157
23.8991
23.907
24.0061
25.0148
30.888
55.1914
30.2542
30.1431
30.1455
30.1456
30.1273
30.1275
30.0908
30.09
30.1317
30.7355
34.0604
49.0784
40.5611
40.4188
40.3646
40.3548
40.2537
40.2469
40.1217
40.1073
40.0413
40.1207
39.916
37.328
69.5326
69.234
68.9892
68.6796
68.3559
68.0158
67.6989
67.4025
67.1918
66.8175
63.1193
44.7798
89.4338
29.5141
20.3039
18.618
18.3413
18.3024
18.2983
18.2992
18.2996
18.302
18.3055
18.3177
67.8473
30.1224
20.5021
18.6284
18.3198
18.2766
18.2717
18.2721
18.2721
18.2726
18.2742
18.2824
63.6715
29.8308
20.4477
18.5967
18.2944
18.2526
18.2479
18.248
18.2481
18.2484
18.2477
18.2543
62.0649
29.3061
20.2899
18.5464
18.2685
18.2312
18.2271
18.227
18.227
18.2264
18.2262
18.2322
60.9392
28.743
20.1162
18.5035
18.2557
18.2237
18.2204
18.2198
18.2199
18.2188
18.2183
18.2239
59.9538
28.2509
20.027
18.5454
18.3259
18.2988
18.2956
18.2953
18.2948
18.2941
18.294
18.2989
59.1411
28.0534
20.2954
18.938
18.7425
18.7186
18.715
18.7145
18.7138
18.7139
18.714
18.7161
58.0754
28.6553
21.5946
20.3738
20.1989
20.1766
20.1707
20.1699
20.169
20.1711
20.1725
20.1725
55.5975
30.8149
25.0206
24.005
23.857
23.834
23.8275
23.8227
23.8276
23.8287
23.8343
23.8364
49.5229
34.1405
30.7177
30.0966
29.9946
29.9783
29.9771
29.9813
30.0005
29.9891
30.0015
30.0345
37.626
39.9364
40.051
39.9769
39.9405
39.9482
39.9806
40.0184
40.0948
40.0613
40.0749
40.1894
45.0026
63.2467
66.7743
67.1487
67.2504
67.4144
67.6585
67.83
68.1949
68.293
68.2409
68.3448
18.3487
18.3146
18.3003
18.2959
18.2932
18.291
18.2919
18.3129
18.5407
20.2519
30.0149
89.5927
18.3127
18.2813
18.2716
18.268
18.2667
18.2652
18.2664
18.2908
18.5495
20.4437
30.4776
67.0946
18.2843
18.2544
18.246
18.2444
18.2436
18.2427
18.2436
18.2672
18.5187
20.3738
30.0718
63.0671
18.2611
18.2328
18.2269
18.2248
18.2242
18.2234
18.2241
18.2447
18.4721
20.2025
29.4635
61.5555
18.2506
18.2247
18.2194
18.2185
18.2177
18.2173
18.2178
18.2352
18.4354
20.021
28.8341
60.5053
18.3157
18.2995
18.2971
18.296
18.2959
18.2954
18.296
18.31
18.4849
19.933
28.3113
59.6749
18.7144
18.7209
18.7237
18.7242
18.7255
18.7247
18.7252
18.7357
18.8894
20.2155
28.1095
58.9353
20.1462
20.1891
20.2014
20.203
20.2073
20.2056
20.2057
20.2113
20.3463
21.5454
28.732
57.8611
23.8383
23.8844
23.8997
23.9015
23.9062
23.9018
23.9021
23.8978
24.0083
25.0062
30.8736
55.2358
30.2307
30.1091
30.0963
30.0939
30.0774
30.0667
30.0631
30.0457
30.1124
30.7025
34.0231
48.934
40.4339
40.2399
40.1794
40.1465
40.0591
40.0045
40.0014
39.9404
39.9588
40.0069
39.8494
37.0772
69.0765
68.5524
68.2739
68.0601
67.6998
67.536
67.4261
67.2222
67.0778
66.7566
63.0851
44.8119
89.5695
29.4966
20.3007
18.6175
18.3415
18.303
18.299
18.3004
18.3028
18.3052
18.3095
18.3206
67.3519
30.0988
20.5009
18.6285
18.3203
18.2775
18.2727
18.2734
18.2747
18.2751
18.2763
18.2852
63.2319
29.8138
20.4475
18.5969
18.2947
18.2532
18.2486
18.249
18.2497
18.2494
18.2499
18.257
61.6432
29.2956
20.2909
18.5469
18.2691
18.2318
18.2277
18.228
18.2284
18.228
18.2279
18.2349
60.5948
28.7367
20.1171
18.504
18.2561
18.224
18.2208
18.2211
18.2214
18.2209
18.2213
18.2267
59.6771
28.2477
20.0285
18.5461
18.3266
18.2993
18.2963
18.2965
18.2962
18.2958
18.2963
18.3018
58.8373
28.0497
20.2958
18.9383
18.7425
18.7188
18.7153
18.7154
18.7148
18.7152
18.7165
18.7184
57.7419
28.6504
21.5922
20.3725
20.1978
20.1764
20.1703
20.1701
20.1693
20.1715
20.1737
20.1739
55.4103
30.808
25.0069
24.0024
23.8509
23.8368
23.8236
23.8261
23.8258
23.8337
23.8377
23.8387
49.4869
34.1137
30.6841
30.0848
29.9904
29.9871
29.9807
29.9955
30.0112
30.0205
30.0327
30.0556
37.644
39.8512
39.9655
39.955
39.9454
39.9929
40.0137
40.0832
40.1473
40.2057
40.219
40.2799
44.8527
63.0179
66.5416
66.9672
67.1729
67.3362
67.7084
67.8848
68.2248
68.7837
68.8739
68.6061
18.3511
18.315
18.302
18.2981
18.2959
18.2941
18.2944
18.3148
18.5427
20.2581
30.0754
90.8143
18.3151
18.282
18.2723
18.2705
18.2696
18.2682
18.2688
18.2926
18.5519
20.4506
30.5021
67.3782
18.2871
18.2554
18.2474
18.2463
18.246
18.245
18.2458
18.2688
18.5212
20.381
30.1079
63.1271
18.2636
18.2337
18.2271
18.2262
18.2264
18.2258
18.2263
18.2463
18.4748
20.2106
29.5055
61.8646
18.2536
18.2256
18.2201
18.2195
18.22
18.2194
18.2197
18.2366
18.4376
20.0287
28.8769
60.6316
18.3181
18.3005
18.2974
18.2975
18.2979
18.2975
18.2976
18.3114
18.4869
19.9401
28.3467
59.7665
18.7165
18.7213
18.7239
18.7255
18.7262
18.7261
18.7256
18.7365
18.8904
20.221
28.1371
58.7966
20.1474
20.1881
20.2007
20.2052
20.2067
20.207
20.2044
20.2115
20.3455
21.5488
28.7499
57.6612
23.8416
23.8827
23.9026
23.9087
23.9084
23.91
23.8999
23.9025
24.0063
25.0103
30.8885
55.1339
30.2549
30.1387
30.1344
30.1125
30.1123
30.1064
30.0806
30.075
30.1281
30.7235
34.0572
49.104
40.5298
40.38
40.3518
40.2241
40.1931
40.1762
40.0807
40.0519
40.0268
40.0848
39.9053
37.3625
69.3714
69.0309
68.7551
68.2826
67.8379
67.6442
67.4773
67.2387
67.0511
66.6957
63.0334
44.6621
89.4088
29.5164
20.3021
18.6178
18.3413
18.3022
18.2979
18.2985
18.3
18.3022
18.3065
18.3189
67.9282
30.1252
20.5004
18.6283
18.3198
18.2765
18.2716
18.2717
18.2727
18.2727
18.2744
18.2834
63.7552
29.8327
20.4468
18.5968
18.2945
18.2526
18.2477
18.2481
18.2485
18.2485
18.2483
18.2554
62.1387
29.3073
20.2896
18.5466
18.2687
18.2311
18.2268
18.2274
18.2276
18.2271
18.227
18.2332
61.0462
28.7458
20.116
18.5037
18.2559
18.2236
18.2201
18.2205
18.2207
18.2197
18.2194
18.2251
60.0278
28.2532
20.027
18.5455
18.3262
18.2987
18.2956
18.296
18.2957
18.2949
18.2949
18.2999
59.245
28.0564
20.2957
18.938
18.7427
18.7182
18.7151
18.7147
18.7143
18.7139
18.7146
18.7168
58.1563
28.6576
21.5949
20.3732
20.199
20.1755
20.1709
20.1691
20.1691
20.1696
20.1716
20.1723
55.6507
30.8151
25.0209
24.0025
23.8568
23.8305
23.8281
23.8203
23.827
23.8236
23.8312
23.836
49.4882
34.1348
30.715
30.09
29.9939
29.9756
29.9806
29.9809
30.0011
29.9785
29.9985
30.0405
37.5717
39.9158
40.041
39.9603
39.9418
39.9532
40.0174
40.0425
40.0951
40.0435
40.0804
40.2199
45.0195
63.2625
66.7843
67.1545
67.2497
67.4341
67.7435
67.9488
68.0578
68.2257
68.322
68.4017
18.3504
18.316
18.3023
18.2978
18.2946
18.2924
18.2926
18.3131
18.5399
20.2459
29.9707
89.7053
18.3142
18.2825
18.2726
18.2697
18.2682
18.2665
18.2672
18.2908
18.5489
20.4384
30.4436
67.0146
18.2858
18.2556
18.2472
18.2457
18.2448
18.2438
18.2445
18.2673
18.5185
20.3706
30.0531
63.0622
18.2625
18.2337
18.2272
18.2261
18.2255
18.2246
18.2252
18.2449
18.4722
20.2009
29.4571
61.533
18.2519
18.2256
18.2202
18.2194
18.2188
18.2184
18.2189
18.2355
18.4356
20.0207
28.8338
60.5288
18.3167
18.3003
18.2978
18.2972
18.297
18.2964
18.297
18.3104
18.4852
19.9332
28.3141
59.6316
18.7151
18.7215
18.7244
18.7251
18.7263
18.7252
18.7258
18.7356
18.8897
20.2157
28.1136
58.9316
20.1463
20.1885
20.2012
20.2043
20.208
20.2056
20.2061
20.2103
20.3464
21.5447
28.7355
57.815
23.838
23.8824
23.9008
23.9065
23.9107
23.9028
23.9044
23.8952
24.0098
25.0023
30.8777
55.1943
30.2381
30.1131
30.1183
30.1161
30.0997
30.0862
30.0789
30.0506
30.1207
30.6979
34.0269
48.9205
40.471
40.2712
40.2374
40.2035
40.1303
40.0859
40.059
39.9686
39.9897
39.9993
39.8419
37.0802
69.1889
68.7021
68.436
68.2192
67.9461
67.7121
67.4446
67.233
67.0706
66.7449
63.0643
44.77
89.7041
29.4844
20.2978
18.6174
18.3418
18.303
18.2992
18.3003
18.3028
18.3055
18.3099
18.3208
67.4054
30.0899
20.4986
18.6286
18.3207
18.2775
18.2727
18.2734
18.2746
18.2752
18.2764
18.2852
63.343
29.8115
20.4463
18.597
18.2951
18.2532
18.2487
18.2492
18.2501
18.2496
18.25
18.257
61.8598
29.3002
20.2906
18.5473
18.2696
18.2322
18.2281
18.2286
18.2289
18.2284
18.2282
18.2349
60.7379
28.7417
20.1172
18.5043
18.2566
18.2246
18.2213
18.2215
18.2219
18.2211
18.2214
18.2267
59.8052
28.2541
20.029
18.5466
18.3272
18.3
18.2967
18.2968
18.2963
18.296
18.2964
18.3017
58.9052
28.0568
20.296
18.9388
18.7424
18.7195
18.7149
18.7156
18.7138
18.715
18.7163
18.718
57.8139
28.6593
21.5917
20.3732
20.1966
20.1769
20.1685
20.1705
20.166
20.1711
20.1734
20.1724
55.4602
30.8193
25.0041
24.0062
23.8466
23.8403
23.8183
23.8301
23.8154
23.8353
23.8376
23.833
49.6552
34.1348
30.6862
30.0985
29.9923
29.9994
29.9816
29.9977
29.9876
30.0232
30.0166
30.0272
37.8287
39.901
39.9846
40.0048
39.9644
40.0357
40.0298
40.1033
40.0859
40.1982
40.1703
40.1971
44.9577
63.0596
66.6158
66.9956
67.2452
67.355
67.7879
68.0256
68.2693
68.4342
68.689
68.6723
)
;

boundaryField
{
    rotor
    {
        type            epsilonWallFunction;
        Cmu             0.09;
        kappa           0.41;
        E               9.8;
        value           nonuniform List<scalar> 
192
(
151.201
133.108
149.585
162.758
162.473
167.723
164.722
167.193
158.933
161.232
167.37
172.975
169.106
169.355
161.824
159.255
164.191
169.895
164.522
160.601
153.213
139.24
115.698
141.238
277.959
147.881
156.55
165.85
160.13
166.917
165.678
167.702
159.076
160.899
169.017
172.29
164.882
164.097
159.118
162.917
168.087
174.483
168.069
163.456
155.186
141.001
117.766
146.077
151.634
133.464
149.828
163.117
162.789
166.78
159.083
162.51
168.672
173.449
164.108
162.663
166.457
169.347
161.79
161.416
164.201
169.759
164.246
160.765
153.338
139.368
115.853
141.805
151.632
132.651
148.731
160.383
156.892
163.111
163.181
172.332
171.543
171.224
167.134
168.503
162.005
160.988
165.539
170.218
166.997
167.587
166.549
167.379
154.675
140.739
117.423
143.791
151.201
170.052
151.127
135.167
129.416
123.367
121.217
113.411
113.575
104.691
104.59
151.076
143.791
158.655
152.669
140.551
130.206
120.174
120.219
116.451
120.032
119.559
124.16
142.679
277.959
160.181
144.032
134.308
125.239
123.343
115.523
115.713
109.573
104.774
104.78
152.976
141.238
157.226
152.613
144.09
135.665
124.469
120.042
117.717
119.736
119.237
124.72
143.483
151.634
170.454
156.059
142.988
135.013
126.158
120.578
112.105
112.655
104.587
104.605
150.307
146.077
159.869
153.672
142.1
134.052
123.096
119.86
116.345
119.94
119.612
123.941
142.841
151.632
169.997
150.348
135.076
129.26
122.943
115.881
114.201
106.743
104.595
104.006
149.876
141.805
157.489
152.159
141.088
132.694
123.468
119.729
117.531
119.428
119.179
124.356
143.709
)
;
    }
    stator
    {
        type            epsilonWallFunction;
        Cmu             0.09;
        kappa           0.41;
        E               9.8;
        value           nonuniform List<scalar> 
192
(
69.5326
69.234
68.9892
68.6796
68.3559
68.0158
67.6989
67.4025
67.1918
66.8175
63.1193
44.7798
45.0026
63.2467
66.7743
67.1487
67.2504
67.4144
67.6585
67.83
68.1949
68.293
68.2409
68.3448
69.0765
68.5524
68.2739
68.0601
67.6998
67.536
67.4261
67.2222
67.0778
66.7566
63.0851
44.8119
44.8527
63.0179
66.5416
66.9672
67.1729
67.3362
67.7084
67.8848
68.2248
68.7837
68.8739
68.6061
69.3714
69.0309
68.7551
68.2826
67.8379
67.6442
67.4773
67.2387
67.0511
66.6957
63.0334
44.6621
45.0195
63.2625
66.7843
67.1545
67.2497
67.4341
67.7435
67.9488
68.0578
68.2257
68.322
68.4017
69.1889
68.7021
68.436
68.2192
67.9461
67.7121
67.4446
67.233
67.0706
66.7449
63.0643
44.77
44.9577
63.0596
66.6158
66.9956
67.2452
67.355
67.7879
68.0256
68.2693
68.4342
68.689
68.6723
89.4338
67.8473
63.6715
62.0649
60.9392
59.9538
59.1411
58.0754
55.5975
49.5229
37.626
45.0026
90.5763
67.2495
63.0145
61.6626
60.5044
59.6548
58.8092
57.6872
55.1914
49.0784
37.328
44.7798
89.5695
67.3519
63.2319
61.6432
60.5948
59.6771
58.8373
57.7419
55.4103
49.4869
37.644
44.8527
89.5927
67.0946
63.0671
61.5555
60.5053
59.6749
58.9353
57.8611
55.2358
48.934
37.0772
44.8119
89.4088
67.9282
63.7552
62.1387
61.0462
60.0278
59.245
58.1563
55.6507
49.4882
37.5717
45.0195
90.8143
67.3782
63.1271
61.8646
60.6316
59.7665
58.7966
57.6612
55.1339
49.104
37.3625
44.6621
89.7041
67.4054
63.343
61.8598
60.7379
59.8052
58.9052
57.8139
55.4602
49.6552
37.8287
44.9577
89.7053
67.0146
63.0622
61.533
60.5288
59.6316
58.9316
57.815
55.1943
48.9205
37.0802
44.77
)
;
    }
    front
    {
        type            empty;
    }
    back
    {
        type            empty;
    }
}


// ************************************************************************* //
