/*--------------------------------*- C++ -*----------------------------------*\
  =========                 |
  \\      /  F ield         | OpenFOAM: The Open Source CFD Toolbox
   \\    /   O peration     | Website:  https://openfoam.org
    \\  /    A nd           | Version:  6
     \\/     M anipulation  |
\*---------------------------------------------------------------------------*/
FoamFile
{
    version     2.0;
    format      ascii;
    class       volScalarField;
    location    "2000";
    object      k;
}
// * * * * * * * * * * * * * * * * * * * * * * * * * * * * * * * * * * * * * //

dimensions      [0 2 -2 0 0 0 0];

internalField   nonuniform List<scalar> 
3072
(
0.27931
0.43619
0.501096
0.545702
0.555167
0.570547
0.566682
0.570806
0.550787
0.552554
0.568039
0.583151
0.392134
0.709734
0.848069
0.904561
0.925218
0.935481
0.939492
0.942747
0.942473
0.943413
0.944404
0.946194
0.390191
0.76675
0.907982
0.953915
0.969286
0.97489
0.976837
0.97765
0.97778
0.977913
0.977953
0.978049
0.396309
0.789774
0.923332
0.962578
0.975093
0.979436
0.980879
0.981378
0.981504
0.981563
0.981496
0.981447
0.406093
0.802252
0.931047
0.965676
0.976368
0.97995
0.981068
0.981414
0.981459
0.981448
0.981398
0.981388
0.417034
0.815228
0.937519
0.967739
0.976727
0.979522
0.980388
0.980503
0.980518
0.980448
0.980436
0.980338
0.425632
0.830767
0.944959
0.970106
0.976929
0.978985
0.979419
0.979522
0.979395
0.979321
0.979098
0.979028
0.43108
0.845883
0.953636
0.97281
0.977262
0.978385
0.97852
0.978369
0.978129
0.977934
0.977845
0.977713
0.455034
0.860198
0.963373
0.976061
0.977754
0.977869
0.977529
0.977136
0.976979
0.97681
0.976589
0.976509
0.449239
0.861269
0.971831
0.979352
0.97831
0.977219
0.976422
0.975887
0.975731
0.975535
0.975308
0.975242
0.455446
0.861864
0.978825
0.982072
0.97862
0.976515
0.975271
0.974613
0.974428
0.974155
0.974014
0.974048
0.594061
0.917623
0.987226
0.983393
0.978071
0.975416
0.973948
0.973269
0.973031
0.972802
0.972672
0.972743
0.575569
0.574535
0.560119
0.553683
0.560716
0.568869
0.554124
0.54261
0.517074
0.469646
0.387107
0.26119
0.945637
0.945669
0.944461
0.944216
0.944707
0.945673
0.943617
0.935761
0.90915
0.834903
0.641423
0.35259
0.977902
0.977825
0.977643
0.97761
0.977641
0.977702
0.977129
0.974156
0.962124
0.918506
0.769164
0.393417
0.981377
0.981344
0.981304
0.981323
0.981332
0.981341
0.981064
0.979339
0.971457
0.939029
0.808676
0.406196
0.981354
0.981336
0.981279
0.981252
0.981253
0.981281
0.981188
0.980066
0.974066
0.946708
0.822892
0.408233
0.98033
0.980254
0.980233
0.980185
0.980237
0.98025
0.980259
0.979558
0.974949
0.951646
0.835047
0.409785
0.978965
0.978993
0.978915
0.97893
0.978914
0.97899
0.979083
0.978862
0.975833
0.95677
0.846653
0.419649
0.977644
0.977645
0.977579
0.977554
0.977621
0.977779
0.978133
0.978426
0.976866
0.962912
0.865624
0.434069
0.976428
0.976374
0.976369
0.976363
0.97643
0.976712
0.977194
0.977936
0.978225
0.969176
0.881798
0.462551
0.97507
0.974981
0.974994
0.97499
0.975173
0.97561
0.97632
0.97761
0.979414
0.976256
0.907207
0.493075
0.973849
0.973788
0.973919
0.973886
0.974019
0.974501
0.97535
0.977056
0.980587
0.983838
0.940062
0.542809
0.972636
0.972613
0.972773
0.972805
0.972962
0.97341
0.974276
0.976203
0.980941
0.992767
1.00299
0.644428
0.48097
0.499547
0.537729
0.565218
0.560649
0.575648
0.573366
0.574963
0.554064
0.55451
0.573168
0.581887
0.384142
0.711202
0.855681
0.911448
0.930495
0.940172
0.943868
0.946217
0.944845
0.944964
0.945714
0.94689
0.389591
0.77395
0.911122
0.954965
0.969828
0.975399
0.977351
0.978116
0.978123
0.97819
0.978194
0.978245
0.399686
0.794923
0.92557
0.962992
0.97513
0.979401
0.980848
0.981369
0.981505
0.981571
0.981541
0.981528
0.401917
0.804382
0.932206
0.965769
0.97637
0.979747
0.98098
0.981236
0.981454
0.981387
0.981469
0.981361
0.412238
0.81756
0.938376
0.968084
0.976597
0.979526
0.980157
0.980553
0.980389
0.980515
0.980302
0.98041
0.41681
0.828844
0.945169
0.970166
0.977031
0.978888
0.979459
0.979402
0.979305
0.979121
0.97905
0.978915
0.433333
0.842786
0.953453
0.972834
0.977304
0.978317
0.978473
0.978326
0.978039
0.977839
0.977631
0.9774
0.438962
0.855289
0.962526
0.976066
0.9778
0.977802
0.97748
0.977086
0.976758
0.976583
0.976332
0.976089
0.448095
0.861861
0.972476
0.979644
0.978449
0.977245
0.976421
0.975877
0.975527
0.97526
0.975055
0.975056
0.455947
0.864864
0.979962
0.982653
0.978857
0.976546
0.975281
0.974545
0.974119
0.973851
0.97378
0.973874
0.597817
0.921638
0.989269
0.984134
0.978326
0.975485
0.974051
0.97324
0.972879
0.972711
0.972663
0.97262
0.563407
0.562338
0.552472
0.555702
0.571118
0.579216
0.560426
0.54815
0.520142
0.473806
0.391429
0.271015
0.945893
0.945632
0.944769
0.94556
0.946638
0.947738
0.945279
0.936886
0.909427
0.835692
0.646484
0.356478
0.97805
0.977986
0.977885
0.978025
0.97816
0.97828
0.977641
0.974549
0.962213
0.917978
0.767702
0.395003
0.981449
0.981458
0.981438
0.981477
0.981517
0.981559
0.981265
0.979495
0.971408
0.938464
0.808172
0.405763
0.981415
0.981305
0.981354
0.981297
0.981424
0.981432
0.981407
0.980134
0.973957
0.945833
0.821173
0.413227
0.980207
0.980313
0.980155
0.980273
0.980202
0.980406
0.980367
0.979696
0.974833
0.950566
0.833086
0.414955
0.978892
0.978806
0.978835
0.978787
0.97882
0.978944
0.979266
0.978951
0.975617
0.955878
0.842211
0.420841
0.977325
0.97736
0.977358
0.977313
0.977359
0.977655
0.97808
0.978413
0.976777
0.961931
0.86449
0.4314
0.976092
0.976061
0.976033
0.976021
0.976134
0.976488
0.977123
0.977912
0.978012
0.969002
0.879502
0.463481
0.975041
0.974912
0.974914
0.97498
0.975095
0.975455
0.976239
0.977531
0.979378
0.975722
0.907692
0.493259
0.973767
0.973718
0.973841
0.973966
0.974105
0.974421
0.975249
0.976944
0.980393
0.983926
0.939033
0.5402
0.972559
0.972599
0.972815
0.972854
0.972946
0.973326
0.97414
0.976101
0.980897
0.992296
1.0013
0.642754
0.280115
0.437166
0.502056
0.546685
0.555395
0.566021
0.549466
0.555188
0.570159
0.582908
0.566057
0.560363
0.385998
0.709173
0.847777
0.904353
0.925025
0.934927
0.938203
0.941751
0.943921
0.946085
0.945052
0.945203
0.396693
0.767398
0.908031
0.953903
0.969256
0.97482
0.976721
0.977618
0.977967
0.978168
0.978008
0.977969
0.409026
0.791184
0.923538
0.962613
0.975091
0.979422
0.980857
0.981364
0.981501
0.981561
0.981492
0.981448
0.414143
0.803024
0.931096
0.965665
0.976343
0.979933
0.981067
0.981422
0.981475
0.981466
0.981367
0.981322
0.421598
0.815434
0.937376
0.967656
0.976672
0.979471
0.980346
0.980459
0.980483
0.980418
0.9804
0.980266
0.426331
0.830628
0.944709
0.969978
0.976841
0.978911
0.979339
0.979421
0.979288
0.979258
0.979056
0.978996
0.429708
0.845359
0.953345
0.972689
0.977187
0.978317
0.978462
0.978247
0.977986
0.977906
0.977852
0.977784
0.453294
0.859722
0.963105
0.975962
0.977688
0.977797
0.977551
0.977153
0.97684
0.976588
0.976494
0.976528
0.448572
0.861235
0.97164
0.979296
0.978266
0.977194
0.976509
0.97594
0.975578
0.975323
0.975253
0.975312
0.455204
0.862155
0.978668
0.982053
0.978613
0.976525
0.975449
0.974795
0.974391
0.974214
0.974017
0.973996
0.59177
0.916746
0.98691
0.983337
0.978156
0.975517
0.97418
0.973518
0.973331
0.973245
0.972998
0.972926
0.564605
0.574722
0.562076
0.557823
0.561613
0.570261
0.555354
0.542802
0.51714
0.46998
0.387436
0.262737
0.945112
0.945945
0.944898
0.944586
0.944935
0.945899
0.943787
0.935852
0.909165
0.835083
0.642283
0.352784
0.977877
0.97788
0.977721
0.977691
0.977706
0.977734
0.977124
0.974133
0.96208
0.918373
0.768653
0.392529
0.981364
0.981333
0.981304
0.981324
0.981326
0.981324
0.981026
0.97929
0.971384
0.938817
0.80826
0.404161
0.981285
0.981277
0.981196
0.981148
0.981154
0.981216
0.981161
0.980051
0.974022
0.946521
0.823179
0.411634
0.980249
0.980184
0.980179
0.980115
0.980122
0.980176
0.98026
0.979575
0.974949
0.951587
0.835287
0.413783
0.978907
0.978892
0.978817
0.978869
0.978901
0.979013
0.979121
0.978907
0.975846
0.956673
0.846055
0.419065
0.977687
0.977531
0.977496
0.977483
0.977545
0.977735
0.978126
0.978458
0.976901
0.962904
0.865298
0.432521
0.976456
0.976254
0.976173
0.976213
0.976302
0.976621
0.977186
0.977983
0.978263
0.96921
0.881542
0.460339
0.975243
0.975079
0.974902
0.974918
0.975098
0.975519
0.976293
0.977634
0.979471
0.976331
0.90685
0.492892
0.97391
0.973817
0.973763
0.973832
0.974055
0.97449
0.975355
0.977059
0.980583
0.983748
0.939528
0.542067
0.972698
0.972634
0.972659
0.972699
0.972992
0.973445
0.974296
0.97619
0.980877
0.992397
1.00094
0.644794
0.280331
0.435
0.500265
0.53853
0.538704
0.549818
0.556548
0.575242
0.568413
0.571884
0.569965
0.571741
0.392079
0.709664
0.847907
0.903603
0.923574
0.933513
0.938289
0.942448
0.94366
0.944911
0.944539
0.944705
0.388966
0.765935
0.907609
0.953609
0.968932
0.974504
0.976514
0.97744
0.977683
0.977788
0.977678
0.977644
0.395726
0.789043
0.923
0.962383
0.974943
0.97927
0.980726
0.981237
0.981389
0.981464
0.98142
0.98138
0.40481
0.801373
0.930737
0.9655
0.976318
0.979802
0.981005
0.981276
0.981449
0.981393
0.981419
0.981322
0.416488
0.815415
0.937256
0.967776
0.976585
0.979542
0.980248
0.980591
0.980467
0.980523
0.98034
0.980424
0.424832
0.829558
0.944613
0.969991
0.976963
0.97893
0.97949
0.979457
0.979371
0.979149
0.979078
0.979032
0.441296
0.846522
0.953795
0.972841
0.977279
0.978356
0.978514
0.978319
0.978095
0.977853
0.977669
0.977669
0.443927
0.85799
0.962982
0.976065
0.977779
0.977863
0.97758
0.977189
0.976904
0.976679
0.976459
0.976409
0.445519
0.860071
0.971756
0.979387
0.978331
0.977249
0.976504
0.975965
0.975656
0.975484
0.975326
0.975158
0.451646
0.860924
0.978525
0.982119
0.978659
0.976545
0.975375
0.974696
0.974331
0.974222
0.974191
0.97409
0.588701
0.915815
0.987284
0.983394
0.978071
0.975404
0.974075
0.973388
0.97304
0.972975
0.972865
0.97283
0.55978
0.555199
0.56254
0.573674
0.56395
0.568297
0.569003
0.55988
0.51992
0.472593
0.390765
0.265016
0.94365
0.943605
0.944223
0.945652
0.945538
0.945724
0.944146
0.936914
0.909628
0.835675
0.644493
0.353356
0.977511
0.977559
0.977647
0.977851
0.977879
0.977902
0.977359
0.974446
0.962299
0.918399
0.768322
0.392405
0.981346
0.981365
0.981376
0.981436
0.981464
0.98149
0.981218
0.979475
0.971455
0.938608
0.807503
0.402238
0.981382
0.981321
0.981368
0.981318
0.981402
0.98141
0.981363
0.980115
0.973981
0.945949
0.82053
0.407532
0.980271
0.980344
0.980202
0.980283
0.980229
0.980407
0.980352
0.979658
0.974877
0.950768
0.833451
0.41077
0.979042
0.97891
0.978877
0.978846
0.97886
0.978972
0.979265
0.97894
0.975627
0.956124
0.843616
0.420788
0.977675
0.977547
0.977384
0.977359
0.977434
0.977706
0.978089
0.978394
0.976755
0.961933
0.86487
0.432124
0.976401
0.976302
0.976275
0.976284
0.976352
0.976606
0.977166
0.9779
0.977998
0.969044
0.879759
0.464896
0.974953
0.974867
0.974904
0.974981
0.975186
0.975555
0.976281
0.977551
0.979442
0.975779
0.908021
0.492231
0.973797
0.973723
0.97386
0.973883
0.974031
0.974491
0.975307
0.976999
0.980499
0.984166
0.939157
0.539011
0.97267
0.972619
0.972801
0.972795
0.972915
0.973412
0.974262
0.976219
0.981043
0.99269
1.00268
0.640784
0.939779
0.999747
0.994888
0.982663
0.976625
0.97401
0.972673
0.972035
0.971888
0.971831
0.971853
0.971628
1.0124
1.00412
0.989352
0.979088
0.974464
0.972393
0.97135
0.970901
0.970898
0.970896
0.970889
0.970595
1.00252
0.991686
0.981184
0.975107
0.972288
0.970899
0.970162
0.970027
0.970139
0.970062
0.969867
0.969596
0.986394
0.980639
0.975039
0.971885
0.970291
0.969531
0.969041
0.968999
0.969213
0.96895
0.968666
0.968345
0.971519
0.971519
0.971563
0.97172
0.971918
0.972321
0.973083
0.974844
0.979445
0.992445
1.02641
0.925785
0.970427
0.970461
0.970565
0.970801
0.970962
0.971251
0.971856
0.973159
0.976388
0.985269
1.00961
1.02737
0.969642
0.96976
0.96974
0.969848
0.969989
0.970253
0.970765
0.971567
0.973477
0.978361
0.99049
1.00526
0.968196
0.96844
0.968592
0.96881
0.968965
0.969158
0.969531
0.970027
0.971106
0.973599
0.979015
0.986383
0.942427
1.00262
0.996438
0.983314
0.976826
0.974037
0.972743
0.972078
0.971862
0.971856
0.971758
0.971598
1.01407
1.00598
0.99061
0.979529
0.974565
0.972343
0.97137
0.971023
0.970879
0.970841
0.970693
0.970528
1.00345
0.992772
0.981833
0.975396
0.972253
0.970694
0.970084
0.969996
0.97002
0.969928
0.969751
0.969757
0.986864
0.981213
0.975474
0.972019
0.970209
0.969231
0.968898
0.968957
0.968988
0.968918
0.968552
0.968006
0.971514
0.971566
0.971793
0.971954
0.972034
0.972253
0.972943
0.974698
0.979308
0.992135
1.02461
0.924325
0.970523
0.9707
0.970766
0.970808
0.971074
0.971335
0.971812
0.973048
0.976294
0.985014
1.00856
1.02486
0.969705
0.969773
0.969786
0.969784
0.969946
0.970215
0.970709
0.971512
0.973418
0.978252
0.990041
1.00405
0.967967
0.968464
0.968911
0.968949
0.968925
0.969145
0.969539
0.970103
0.971127
0.973516
0.978847
0.985898
0.938563
0.998637
0.994442
0.982546
0.97671
0.974107
0.972883
0.972383
0.972201
0.971982
0.971923
0.971973
1.01121
1.0034
0.989069
0.978987
0.974525
0.972554
0.971499
0.97103
0.970884
0.970807
0.970936
0.970938
1.00191
0.991324
0.981082
0.97504
0.97227
0.971057
0.97028
0.969913
0.969941
0.969964
0.969982
0.969685
0.986145
0.980541
0.974973
0.971823
0.970266
0.969527
0.969059
0.96889
0.968877
0.968996
0.968826
0.968187
0.971658
0.971615
0.971683
0.9717
0.971872
0.972222
0.97299
0.974753
0.979327
0.992025
1.02437
0.925939
0.970736
0.970728
0.970834
0.970844
0.970883
0.971109
0.971713
0.973043
0.976272
0.984994
1.00842
1.02497
0.969532
0.969684
0.969622
0.969603
0.969825
0.970124
0.970576
0.971412
0.973347
0.978178
0.989964
1.00406
0.967995
0.968375
0.968588
0.968695
0.968824
0.969074
0.969528
0.970037
0.971055
0.973449
0.978766
0.985893
0.937028
0.998651
0.994658
0.982554
0.976556
0.974013
0.972815
0.972128
0.971942
0.971971
0.971899
0.971848
1.01111
1.0037
0.989358
0.978949
0.974386
0.972478
0.971534
0.970972
0.970886
0.970937
0.970844
0.970827
1.00203
0.991661
0.981121
0.975042
0.972278
0.970909
0.970211
0.970019
0.969913
0.969957
0.969982
0.969902
0.986276
0.980773
0.975103
0.97191
0.970473
0.969548
0.969013
0.968932
0.968894
0.968968
0.968888
0.968397
0.971724
0.971506
0.971467
0.971539
0.971724
0.972203
0.973034
0.974858
0.979522
0.992585
1.02606
0.92241
0.97054
0.970437
0.970639
0.970643
0.970666
0.970996
0.971692
0.973114
0.976486
0.985376
1.00947
1.02614
0.969487
0.969429
0.969586
0.969722
0.969774
0.96989
0.970405
0.971406
0.973485
0.9785
0.990499
1.00472
0.968053
0.968229
0.968424
0.968571
0.968713
0.968898
0.969291
0.969967
0.971137
0.973679
0.979136
0.986251
0.976648
0.973614
0.970977
0.969463
0.968666
0.968254
0.967985
0.967928
0.967944
0.967668
0.966665
0.964358
0.971535
0.969832
0.968543
0.967811
0.967423
0.967199
0.967063
0.967023
0.966948
0.966209
0.962559
0.953734
0.968814
0.967689
0.967009
0.966655
0.96647
0.966353
0.966288
0.966252
0.966007
0.963899
0.952839
0.922802
0.967237
0.96636
0.965955
0.965787
0.965695
0.965631
0.9656
0.965549
0.96498
0.960233
0.932765
0.835055
0.964045
0.966193
0.967372
0.967788
0.967955
0.968138
0.968387
0.968704
0.969295
0.970551
0.972919
0.97616
0.952718
0.961435
0.965604
0.966778
0.967079
0.967243
0.967388
0.967577
0.967882
0.968456
0.969491
0.970896
0.920271
0.950752
0.962715
0.965669
0.966278
0.966446
0.966535
0.966644
0.966784
0.967053
0.967479
0.968131
0.827695
0.929961
0.95843
0.96442
0.965521
0.965732
0.965797
0.965862
0.965925
0.966011
0.966202
0.966552
0.976842
0.973918
0.971128
0.969517
0.968586
0.968067
0.967877
0.96785
0.967805
0.967592
0.966577
0.964259
0.971594
0.96997
0.968664
0.96781
0.967339
0.967068
0.966972
0.966939
0.966842
0.966121
0.962453
0.953388
0.96881
0.967757
0.967017
0.966638
0.966395
0.966254
0.96621
0.966181
0.965918
0.963799
0.952541
0.921879
0.96721
0.966385
0.96598
0.965742
0.96561
0.965535
0.965516
0.965475
0.964886
0.960099
0.932231
0.831574
0.963966
0.966215
0.967462
0.967832
0.96797
0.968138
0.968375
0.968722
0.969339
0.970578
0.97292
0.976002
0.952643
0.961387
0.965608
0.966799
0.967107
0.967235
0.967381
0.967601
0.967957
0.968568
0.969579
0.970903
0.920216
0.95063
0.962676
0.965666
0.966288
0.966436
0.966533
0.966677
0.966872
0.967173
0.967612
0.968202
0.82918
0.929802
0.958377
0.964416
0.965533
0.965739
0.965813
0.965901
0.966002
0.966142
0.966322
0.966648
0.976546
0.973576
0.970937
0.969433
0.968657
0.968245
0.967996
0.967906
0.967877
0.967702
0.966706
0.964297
0.971494
0.969814
0.968524
0.967796
0.967421
0.967197
0.967068
0.967022
0.96694
0.966226
0.962568
0.953752
0.968804
0.967683
0.967005
0.966648
0.966471
0.966353
0.966286
0.966248
0.966001
0.963901
0.952858
0.922885
0.967239
0.966363
0.965961
0.965779
0.965697
0.965631
0.965594
0.965543
0.964972
0.960227
0.932781
0.835328
0.963984
0.966187
0.967375
0.967739
0.96789
0.968079
0.968359
0.968674
0.969253
0.970471
0.972823
0.975993
0.95271
0.961446
0.965609
0.966769
0.967058
0.967205
0.967354
0.967541
0.967859
0.968442
0.969473
0.970863
0.920313
0.950782
0.962727
0.96567
0.966271
0.966423
0.966507
0.966617
0.966777
0.967055
0.967498
0.968152
0.827655
0.930002
0.958446
0.964424
0.965519
0.965719
0.965778
0.965845
0.965921
0.966028
0.96623
0.966587
0.976634
0.973765
0.971009
0.969481
0.968721
0.968226
0.967938
0.967868
0.967831
0.967652
0.966707
0.964389
0.971546
0.969944
0.96863
0.967819
0.967413
0.967153
0.967014
0.966971
0.96688
0.966167
0.962555
0.953485
0.968825
0.967784
0.967053
0.966655
0.96644
0.966308
0.966244
0.966204
0.965948
0.96384
0.952656
0.922281
0.967246
0.966433
0.966011
0.965768
0.965653
0.965583
0.965546
0.965492
0.964909
0.960138
0.93248
0.832839
0.963894
0.966036
0.967254
0.967671
0.96786
0.968024
0.968278
0.968692
0.96938
0.970681
0.973072
0.976157
0.952662
0.961313
0.96553
0.966735
0.96706
0.967204
0.967363
0.967604
0.967989
0.968624
0.969652
0.970964
0.920398
0.950629
0.962653
0.965645
0.966276
0.966438
0.96654
0.966684
0.966889
0.967201
0.967644
0.968225
0.829875
0.929882
0.958385
0.964418
0.965539
0.965754
0.965828
0.96591
0.96601
0.966159
0.966342
0.966655
0.966226
0.965449
0.965176
0.96509
0.965048
0.96501
0.964997
0.964916
0.963961
0.955961
0.901725
0.58585
0.965468
0.964758
0.964553
0.964504
0.964483
0.964458
0.964448
0.964349
0.963166
0.953214
0.882439
0.456201
0.964874
0.964189
0.964018
0.963989
0.963982
0.963963
0.963958
0.963856
0.962631
0.952214
0.877432
0.436683
0.964347
0.963693
0.963544
0.963527
0.963523
0.963509
0.963502
0.96341
0.962252
0.9522
0.878744
0.438088
0.963841
0.963184
0.963053
0.963033
0.963036
0.963025
0.963022
0.962941
0.961896
0.952512
0.882055
0.442367
0.962987
0.962313
0.962181
0.962168
0.962165
0.96216
0.962155
0.962085
0.961151
0.95246
0.885205
0.447626
0.960457
0.959636
0.959448
0.959449
0.959433
0.959445
0.95943
0.959382
0.958522
0.950336
0.885656
0.451635
0.951848
0.950648
0.950338
0.950328
0.95028
0.950308
0.950281
0.950256
0.949421
0.941322
0.877512
0.450216
0.92557
0.923657
0.923043
0.923057
0.922845
0.922965
0.922839
0.922925
0.921996
0.9135
0.84783
0.43496
0.855535
0.852656
0.85177
0.851537
0.851205
0.851198
0.851129
0.851168
0.850312
0.841208
0.772737
0.393075
0.681751
0.678095
0.676788
0.676091
0.675651
0.67532
0.675253
0.67515
0.674536
0.6664
0.603263
0.310564
0.285839
0.284254
0.283366
0.282378
0.281498
0.280404
0.279658
0.278799
0.278134
0.275155
0.251787
0.158069
0.577487
0.899952
0.953722
0.963214
0.964828
0.965093
0.965149
0.965195
0.965217
0.965247
0.965295
0.965521
0.459378
0.88079
0.95061
0.962303
0.964224
0.964521
0.964574
0.964601
0.964607
0.96459
0.964615
0.964781
0.442432
0.875121
0.949426
0.961731
0.963715
0.96401
0.964062
0.964077
0.964072
0.964058
0.964038
0.964174
0.442866
0.875663
0.949371
0.961374
0.963261
0.963535
0.963579
0.963589
0.963581
0.963553
0.963545
0.963668
0.446613
0.878441
0.949756
0.961072
0.962803
0.963039
0.963082
0.963087
0.96308
0.96305
0.963021
0.963138
0.450737
0.88132
0.94982
0.960396
0.961956
0.962167
0.962193
0.962208
0.962195
0.962173
0.962144
0.962255
0.454798
0.881802
0.947837
0.95784
0.959278
0.959475
0.959498
0.959516
0.959504
0.959489
0.959444
0.959548
0.45342
0.874033
0.93897
0.94882
0.950213
0.950429
0.95045
0.950487
0.950463
0.950459
0.950403
0.950519
0.438433
0.845146
0.911299
0.92155
0.923036
0.923275
0.923374
0.923376
0.923433
0.923348
0.923303
0.923425
0.396496
0.770879
0.839227
0.850097
0.85167
0.852055
0.852172
0.852281
0.852309
0.852232
0.852233
0.852282
0.313015
0.602531
0.664928
0.674769
0.676308
0.676786
0.677063
0.677203
0.677298
0.677214
0.677418
0.677212
0.158449
0.252007
0.274839
0.278007
0.278517
0.279074
0.279707
0.280438
0.281122
0.282062
0.282286
0.28207
0.966172
0.965451
0.965147
0.965045
0.964972
0.964927
0.964917
0.964846
0.963876
0.955842
0.900956
0.579057
0.96541
0.964743
0.964539
0.964446
0.964401
0.964369
0.964365
0.964274
0.963084
0.953101
0.88186
0.45421
0.964798
0.964162
0.963975
0.963939
0.963909
0.96389
0.963883
0.963791
0.962562
0.952131
0.87707
0.437862
0.964275
0.963658
0.963519
0.963466
0.963449
0.963436
0.963427
0.963342
0.962184
0.952117
0.878573
0.439279
0.963758
0.963149
0.963011
0.962995
0.962977
0.96297
0.962956
0.962882
0.961835
0.952448
0.881969
0.444037
0.962919
0.962272
0.962157
0.962112
0.962105
0.962095
0.962089
0.96202
0.961089
0.952395
0.885212
0.449159
0.960384
0.959577
0.959414
0.959365
0.959364
0.959352
0.95936
0.959298
0.958458
0.950259
0.885675
0.453784
0.951767
0.950548
0.950285
0.950157
0.950161
0.950138
0.950175
0.950119
0.949326
0.941199
0.87748
0.451702
0.925466
0.923421
0.922928
0.92268
0.922598
0.922563
0.922652
0.922608
0.921845
0.913213
0.847651
0.435082
0.855204
0.852155
0.851269
0.850716
0.850428
0.850311
0.850445
0.850522
0.849801
0.840605
0.772081
0.392081
0.680891
0.676923
0.675444
0.674484
0.673774
0.673542
0.673661
0.673954
0.673512
0.665351
0.601947
0.308791
0.2843
0.282491
0.281499
0.280627
0.279563
0.279087
0.278701
0.278373
0.277899
0.275183
0.251899
0.158581
0.579348
0.899656
0.953647
0.963201
0.964837
0.965102
0.965168
0.965227
0.965278
0.965341
0.965422
0.965619
0.456956
0.880266
0.950528
0.962296
0.96424
0.964539
0.964594
0.964632
0.964653
0.964684
0.964709
0.964877
0.438333
0.874563
0.949343
0.961721
0.963723
0.964026
0.964074
0.964101
0.964118
0.964125
0.964135
0.964268
0.439084
0.875208
0.949312
0.961373
0.963275
0.963555
0.963594
0.963612
0.963621
0.963622
0.963619
0.963758
0.442989
0.878047
0.9497
0.96107
0.962809
0.963059
0.963096
0.963102
0.963117
0.963106
0.963107
0.963224
0.448152
0.881005
0.949788
0.960401
0.961969
0.96219
0.962219
0.962221
0.962228
0.962224
0.962212
0.962342
0.451882
0.881505
0.947808
0.957853
0.959288
0.959505
0.95952
0.959533
0.959537
0.959528
0.95952
0.959632
0.451383
0.873806
0.938966
0.948855
0.950239
0.950479
0.950486
0.950524
0.95051
0.950522
0.950494
0.950623
0.437008
0.84508
0.911282
0.921688
0.923036
0.923425
0.923386
0.923515
0.923471
0.923537
0.923484
0.923598
0.396569
0.771055
0.839396
0.850326
0.851817
0.852277
0.852356
0.852526
0.852518
0.852677
0.852736
0.852702
0.313726
0.603268
0.665394
0.675202
0.676616
0.677214
0.677568
0.677755
0.677813
0.67818
0.678536
0.678118
0.157918
0.251394
0.27437
0.277653
0.278683
0.279236
0.280357
0.280972
0.281814
0.283018
0.283906
0.283423
0.966231
0.965453
0.965178
0.965083
0.965049
0.965008
0.964986
0.964906
0.963949
0.955944
0.901724
0.58634
0.965475
0.964759
0.964548
0.96449
0.96448
0.964454
0.964438
0.96434
0.963157
0.953197
0.882408
0.456631
0.96488
0.964192
0.964014
0.963974
0.963976
0.96396
0.963949
0.963849
0.962624
0.952197
0.877411
0.437208
0.964352
0.963698
0.963544
0.963517
0.96352
0.96351
0.963499
0.963406
0.96225
0.952189
0.878728
0.439004
0.963845
0.963189
0.963054
0.963029
0.963035
0.963027
0.963019
0.962938
0.961891
0.952502
0.882042
0.443039
0.962994
0.962319
0.962189
0.962169
0.962166
0.962162
0.962154
0.962083
0.961149
0.952454
0.885182
0.448234
0.960472
0.959632
0.959472
0.959445
0.959434
0.959437
0.959431
0.959373
0.958522
0.950325
0.885628
0.451761
0.951874
0.950631
0.950381
0.950323
0.950289
0.950289
0.950283
0.95024
0.949425
0.941311
0.877484
0.450241
0.925665
0.923576
0.923128
0.922988
0.922884
0.922892
0.922847
0.922868
0.922022
0.913469
0.847845
0.434788
0.855638
0.852548
0.851758
0.851405
0.851193
0.851113
0.851039
0.851089
0.850321
0.841194
0.77279
0.393216
0.68185
0.677907
0.67656
0.675809
0.675324
0.675081
0.674933
0.674978
0.674517
0.666433
0.603411
0.310758
0.285454
0.28391
0.282894
0.281723
0.280575
0.279762
0.279181
0.278507
0.277899
0.275037
0.25177
0.158007
0.577564
0.900003
0.95374
0.963219
0.964829
0.965087
0.965137
0.965186
0.965216
0.965261
0.965326
0.965561
0.459552
0.880839
0.950624
0.962306
0.964226
0.964518
0.964565
0.964598
0.96461
0.96462
0.964648
0.964817
0.442528
0.875165
0.949436
0.961736
0.963718
0.96401
0.964056
0.964078
0.964077
0.964082
0.964073
0.964213
0.442811
0.875692
0.949376
0.961377
0.963266
0.963536
0.963579
0.963593
0.963592
0.96358
0.963574
0.9637
0.446629
0.878469
0.94976
0.961077
0.962807
0.963044
0.963087
0.963092
0.963093
0.963077
0.963056
0.963172
0.450672
0.881335
0.949823
0.960397
0.961958
0.962169
0.962203
0.962213
0.962213
0.962198
0.962174
0.962284
0.454864
0.881817
0.947842
0.957839
0.959281
0.959472
0.95951
0.95952
0.959527
0.959507
0.959474
0.959582
0.453547
0.874037
0.938974
0.948815
0.950221
0.95042
0.95047
0.950499
0.950498
0.950483
0.950442
0.950565
0.438536
0.845125
0.91131
0.921537
0.923063
0.92325
0.92342
0.923407
0.923498
0.923384
0.92336
0.923505
0.396317
0.770842
0.839231
0.850097
0.851713
0.852042
0.852265
0.852445
0.852454
0.852351
0.85232
0.852418
0.31271
0.602502
0.664927
0.674797
0.676369
0.676838
0.677275
0.677728
0.677693
0.677481
0.677783
0.677617
0.158148
0.251836
0.27469
0.277923
0.278408
0.279083
0.27986
0.280804
0.281117
0.28196
0.282437
0.282361
0.966213
0.965503
0.965197
0.965065
0.965008
0.964966
0.964942
0.96486
0.963895
0.955887
0.901348
0.581654
0.965452
0.964791
0.96457
0.964472
0.964445
0.964411
0.964393
0.96429
0.963102
0.953138
0.882207
0.454068
0.964841
0.964208
0.964022
0.963971
0.963953
0.963925
0.963909
0.963806
0.962578
0.952163
0.877266
0.437205
0.964315
0.963698
0.963551
0.963508
0.963497
0.963471
0.963458
0.96336
0.962201
0.952142
0.878683
0.438099
0.963796
0.963187
0.963052
0.963029
0.963016
0.962995
0.962985
0.962899
0.961852
0.952469
0.882001
0.443105
0.962953
0.962305
0.96219
0.962155
0.962148
0.962122
0.96212
0.962041
0.961107
0.95241
0.885204
0.447925
0.960421
0.959613
0.959459
0.95941
0.959409
0.959384
0.959398
0.959319
0.958483
0.950274
0.885654
0.452717
0.951818
0.950596
0.950337
0.950228
0.950234
0.950199
0.950235
0.950152
0.949368
0.941218
0.877492
0.450901
0.925563
0.923515
0.923028
0.922799
0.92276
0.922691
0.92278
0.922656
0.921941
0.913237
0.847725
0.434741
0.855425
0.852388
0.851495
0.850994
0.850806
0.850712
0.850753
0.850707
0.849989
0.840732
0.772266
0.392046
0.681361
0.677448
0.67595
0.675123
0.674663
0.674482
0.674344
0.674383
0.673809
0.665653
0.60234
0.308951
0.284713
0.283001
0.28195
0.281032
0.280139
0.279497
0.278705
0.27826
0.277663
0.274955
0.25157
0.157879
0.580163
0.899751
0.953663
0.963208
0.964845
0.965116
0.965179
0.965233
0.965283
0.965355
0.965434
0.965623
0.457821
0.880347
0.950549
0.962309
0.96425
0.964551
0.964604
0.964643
0.964662
0.964699
0.964721
0.964878
0.439074
0.874636
0.94936
0.961732
0.963733
0.964032
0.964082
0.96411
0.964128
0.964131
0.96414
0.964267
0.440308
0.875305
0.949332
0.961389
0.96329
0.963567
0.963603
0.963625
0.963634
0.963629
0.963623
0.963758
0.443819
0.878118
0.949715
0.961083
0.962825
0.963072
0.963104
0.963114
0.963127
0.963106
0.963108
0.963223
0.449087
0.881067
0.949806
0.960419
0.961989
0.96221
0.962227
0.962241
0.962236
0.962222
0.962212
0.962341
0.452491
0.881545
0.947818
0.957879
0.959302
0.959535
0.959526
0.959568
0.959528
0.959532
0.959525
0.959633
0.452133
0.873865
0.938982
0.948902
0.950256
0.950527
0.950492
0.950578
0.950491
0.950546
0.950512
0.950619
0.43753
0.845208
0.911284
0.921803
0.923037
0.923551
0.923371
0.923664
0.923409
0.92361
0.92352
0.923589
0.397814
0.771279
0.839499
0.850509
0.851931
0.852483
0.852451
0.852818
0.852551
0.852711
0.852828
0.852656
0.315315
0.603669
0.665671
0.675515
0.676928
0.677519
0.677773
0.678407
0.678166
0.67829
0.678764
0.678144
0.1583
0.251624
0.274618
0.277754
0.278928
0.27927
0.280555
0.281277
0.282143
0.282511
0.283545
0.283562
)
;

boundaryField
{
    rotor
    {
        type            kqRWallFunction;
        value           nonuniform List<scalar> 
192
(
0.27931
0.43619
0.501096
0.545702
0.555167
0.570547
0.566682
0.570806
0.550787
0.552554
0.568039
0.583151
0.575569
0.574535
0.560119
0.553683
0.560716
0.568869
0.554124
0.54261
0.517074
0.469646
0.387107
0.26119
0.48097
0.499547
0.537729
0.565218
0.560649
0.575648
0.573366
0.574963
0.554064
0.55451
0.573168
0.581887
0.563407
0.562338
0.552472
0.555702
0.571118
0.579216
0.560426
0.54815
0.520142
0.473806
0.391429
0.271015
0.280115
0.437166
0.502056
0.546685
0.555395
0.566021
0.549466
0.555188
0.570159
0.582908
0.566057
0.560363
0.564605
0.574722
0.562076
0.557823
0.561613
0.570261
0.555354
0.542802
0.51714
0.46998
0.387436
0.262737
0.280331
0.435
0.500265
0.53853
0.538704
0.549818
0.556548
0.575242
0.568413
0.571884
0.569965
0.571741
0.55978
0.555199
0.56254
0.573674
0.56395
0.568297
0.569003
0.55988
0.51992
0.472593
0.390765
0.265016
0.27931
0.392134
0.390191
0.396309
0.406093
0.417034
0.425632
0.43108
0.455034
0.449239
0.455446
0.594061
0.265016
0.353356
0.392405
0.402238
0.407532
0.41077
0.420788
0.432124
0.464896
0.492231
0.539011
0.640784
0.48097
0.384142
0.389591
0.399686
0.401917
0.412238
0.41681
0.433333
0.438962
0.448095
0.455947
0.597817
0.26119
0.35259
0.393417
0.406196
0.408233
0.409785
0.419649
0.434069
0.462551
0.493075
0.542809
0.644428
0.280115
0.385998
0.396693
0.409026
0.414143
0.421598
0.426331
0.429708
0.453294
0.448572
0.455204
0.59177
0.271015
0.356478
0.395003
0.405763
0.413227
0.414955
0.420841
0.4314
0.463481
0.493259
0.5402
0.642754
0.280331
0.392079
0.388966
0.395726
0.40481
0.416488
0.424832
0.441296
0.443927
0.445519
0.451646
0.588701
0.262737
0.352784
0.392529
0.404161
0.411634
0.413783
0.419065
0.432521
0.460339
0.492892
0.542067
0.644794
)
;
    }
    stator
    {
        type            kqRWallFunction;
        value           nonuniform List<scalar> 
192
(
0.285839
0.284254
0.283366
0.282378
0.281498
0.280404
0.279658