/*--------------------------------*- C++ -*----------------------------------*\
  =========                 |
  \\      /  F ield         | OpenFOAM: The Open Source CFD Toolbox
   \\    /   O peration     | Website:  https://openfoam.org
    \\  /    A nd           | Version:  6
     \\/     M anipulation  |
\*---------------------------------------------------------------------------*/
FoamFile
{
    version     2.0;
    format      ascii;
    class       volScalarField;
    location    "2000";
    object      p;
}
// * * * * * * * * * * * * * * * * * * * * * * * * * * * * * * * * * * * * * //

dimensions      [0 2 -2 0 0 0 0];

internalField   nonuniform List<scalar> 
3072
(
0.509094
0.330382
0.196966
0.112174
0.0708647
0.050655
0.0523022
0.0550293
0.07854
0.0976995
0.128781
0.149244
0.507781
0.37714
0.216697
0.0772895
0.0312392
0.0304134
0.0520847
0.0772074
0.11329
0.14824
0.189285
0.224552
0.346781
0.331282
0.156488
-0.0366488
-0.100911
-0.0866175
-0.0411277
0.0113449
0.0694094
0.126561
0.185529
0.240784
0.182516
0.183243
0.0258708
-0.159806
-0.211262
-0.178401
-0.112932
-0.0401889
0.0356924
0.109475
0.183057
0.253099
-0.00451735
0.0547536
-0.107715
-0.268245
-0.288904
-0.232019
-0.148806
-0.0616493
0.0258729
0.109925
0.192527
0.271208
-0.179823
-0.0868659
-0.237199
-0.359369
-0.344876
-0.261617
-0.163927
-0.0637759
0.0302888
0.122663
0.208867
0.294609
-0.36543
-0.229197
-0.353508
-0.430617
-0.375031
-0.271075
-0.15739
-0.0518462
0.0497942
0.142543
0.233777
0.318837
-0.552676
-0.373929
-0.456644
-0.474346
-0.379763
-0.25417
-0.132532
-0.0217827
0.0792446
0.172876
0.261683
0.347091
-0.771771
-0.536644
-0.544448
-0.489549
-0.355476
-0.21446
-0.0888266
0.0209077
0.118778
0.208673
0.293622
0.375735
-1.00426
-0.679597
-0.589742
-0.461209
-0.297669
-0.150862
-0.0290512
0.0743937
0.16517
0.248593
0.327505
0.404747
-1.20312
-0.758054
-0.550418
-0.37063
-0.201925
-0.0660105
0.042879
0.134332
0.215139
0.289811
0.361725
0.432753
-1.28325
-0.6606
-0.36441
-0.201341
-0.0700463
0.0350291
0.121966
0.197291
0.265909
0.330887
0.395018
0.459418
0.179306
0.198466
0.222604
0.232175
0.238672
0.229358
0.216135
0.189828
0.153236
0.0286588
-0.122404
-0.135144
0.262316
0.29279
0.322317
0.341688
0.356091
0.359713
0.357603
0.339644
0.277086
0.115971
-0.0495471
-0.083065
0.29549
0.345147
0.392047
0.432183
0.467481
0.494918
0.51318
0.507686
0.434312
0.240791
0.0734643
0.0876397
0.321674
0.386139
0.4482
0.505136
0.558328
0.604883
0.642796
0.657622
0.607452
0.433201
0.282802
0.331197
0.348524
0.422118
0.494094
0.56233
0.627877
0.689106
0.744293
0.784163
0.77226
0.641152
0.510411
0.590542
0.375298
0.456364
0.533462
0.610466
0.684238
0.757126
0.826549
0.889179
0.913117
0.823104
0.70238
0.83116
0.40438
0.485766
0.568369
0.648028
0.729024
0.808169
0.889691
0.967176
1.01544
0.961683
0.862405
1.03122
0.430659
0.51308
0.594713
0.676729
0.758499
0.84296
0.928961
1.01675
1.08902
1.06814
0.981751
1.18449
0.456441
0.536174
0.615907
0.695666
0.777121
0.861175
0.950873
1.04613
1.13053
1.14709
1.09135
1.29764
0.48084
0.556475
0.63201
0.707752
0.78573
0.867174
0.956046
1.05356
1.15567
1.20347
1.17272
1.38349
0.503555
0.573934
0.643899
0.714368
0.78653
0.863128
0.947699
1.0439
1.1482
1.23078
1.24374
1.39819
0.524525
0.588956
0.652647
0.716745
0.782071
0.851715
0.927849
1.015
1.11622
1.21187
1.25905
1.40978
0.118997
-0.136622
-0.250802
-0.310782
-0.316376
-0.312421
-0.282416
-0.253926
-0.204814
-0.162407
-0.110645
-0.0723095
0.0859894
0.0683738
-0.116085
-0.265139
-0.303518
-0.290271
-0.248051
-0.201716
-0.144994
-0.0911277
-0.0326522
0.0181249
0.018055
0.0791245
-0.106514
-0.300423
-0.359553
-0.337573
-0.280051
-0.214052
-0.14152
-0.0704694
0.00211529
0.06959
-0.0827933
-0.00111609
-0.175645
-0.359547
-0.403545
-0.362928
-0.288043
-0.205365
-0.118741
-0.0346539
0.04915
0.128144
-0.204297
-0.0986701
-0.269495
-0.423975
-0.438957
-0.369108
-0.280195
-0.179872
-0.0865226
0.01004
0.0973859
0.186913
-0.342298
-0.224872
-0.373822
-0.492177
-0.461204
-0.374274
-0.259967
-0.156447
-0.0465691
0.0482496
0.148509
0.234353
-0.497062
-0.350655
-0.472221
-0.538866
-0.4754
-0.357911
-0.236854
-0.118197
-0.00968151
0.095052
0.191008
0.284725
-0.681743
-0.494432
-0.562421
-0.565789
-0.460463
-0.324823
-0.193297
-0.0721785
0.0386939
0.141896
0.237972
0.328994
-0.893608
-0.639332
-0.628851
-0.563719
-0.420152
-0.270058
-0.134982
-0.0152914
0.0927318
0.192003
0.284234
0.371268
-1.12311
-0.773572
-0.664928
-0.521531
-0.348307
-0.193338
-0.0625373
0.0502417
0.151239
0.243518
0.329655
0.410747
-1.31376
-0.838695
-0.610038
-0.418528
-0.240144
-0.0961386
0.0208237
0.121338
0.211482
0.294893
0.37305
0.447085
-1.38037
-0.725984
-0.41504
-0.236234
-0.0952477
0.0172622
0.111516
0.19506
0.27221
0.345186
0.414511
0.480647
-0.0268274
0.00607903
0.0419122
0.0590522
0.0721384
0.0670087
0.0573697
0.0312317
-0.00769124
-0.147721
-0.30842
-0.326873
0.0692245
0.111247
0.15107
0.17846
0.199533
0.207515
0.208021
0.188791
0.121599
-0.0466652
-0.216566
-0.257119
0.13522
0.193987
0.249177
0.295385
0.335765
0.365639
0.385185
0.378366
0.304055
0.111083
-0.0515573
-0.0614289
0.205093
0.276283
0.344141
0.405297
0.461314
0.509203
0.547302
0.560923
0.510297
0.335337
0.186121
0.222292
0.267047
0.349029
0.422201
0.495774
0.560453
0.624657
0.676349
0.718089
0.704331
0.575342
0.450103
0.514053
0.326251
0.405773
0.491181
0.565171
0.644231
0.712095
0.784683
0.842535
0.86925
0.784067
0.668292
0.787918
0.372057
0.459196
0.541777
0.624517
0.703308
0.78341
0.860826
0.939363
0.989564
0.934984
0.847367
1.00938
0.416103
0.500741
0.583813
0.664968
0.746358
0.827621
0.912837
0.998101
1.06753
1.05406
0.961256
1.16765
0.454478
0.535498
0.614368
0.692712
0.771062
0.852477
0.938434
1.03062
1.11529
1.12392
1.07423
1.2742
0.488381
0.563422
0.63631
0.708876
0.782019
0.859785
0.943766
1.03739
1.13299
1.18584
1.14624
1.3586
0.517864
0.58562
0.651295
0.716099
0.782535
0.853235
0.931968
1.02263
1.12388
1.19777
1.21838
1.37376
0.543822
0.603435
0.660843
0.717137
0.775341
0.837205
0.906893
0.98676
1.08047
1.17795
1.22607
1.38211
0.52105
0.339529
0.205724
0.122415
0.0814401
0.0607973
0.0640785
0.0667865
0.0863878
0.10192
0.134747
0.158562
0.51795
0.384349
0.223796
0.0851723
0.0396575
0.0389665
0.0610836
0.0862906
0.121742
0.155676
0.196799
0.233295
0.352713
0.334131
0.159071
-0.0334028
-0.0969096
-0.0820084
-0.0358952
0.017133
0.0755943
0.132925
0.192306
0.248449
0.184497
0.180752
0.0232148
-0.161955
-0.212653
-0.178901
-0.112415
-0.0386707
0.0382255
0.112986
0.187691
0.258996
-0.00796549
0.0464262
-0.115834
-0.275945
-0.29567
-0.237499
-0.152816
-0.0641842
0.0248522
0.110427
0.194692
0.275115
-0.189717
-0.102184
-0.251843
-0.373032
-0.357016
-0.271782
-0.172171
-0.0699995
0.0259328
0.120346
0.208568
0.296582
-0.385044
-0.252486
-0.374632
-0.450162
-0.392224
-0.285783
-0.169524
-0.0616278
0.0424167
0.137461
0.231217
0.318831
-0.579855
-0.400238
-0.482651
-0.499021
-0.40172
-0.273047
-0.14843
-0.0348292
0.0689433
0.165276
0.256894
0.345248
-0.799682
-0.56559
-0.574685
-0.518852
-0.381716
-0.237211
-0.108192
0.00478587
0.105754
0.198681
0.286722
0.37209
-1.03261
-0.71198
-0.624537
-0.494903
-0.327814
-0.177139
-0.0515595
0.0554781
0.149648
0.236382
0.318601
0.399347
-1.23318
-0.795669
-0.590516
-0.408539
-0.235688
-0.0954405
0.0176136
0.112945
0.197381
0.275522
0.350926
0.425603
-1.31961
-0.705942
-0.410566
-0.243397
-0.107107
0.00286557
0.0943196
0.173754
0.246148
0.314685
0.382414
0.450546
0.189367
0.207336
0.230252
0.239541
0.247294
0.238244
0.224249
0.196643
0.158332
0.0302565
-0.122795
-0.136196
0.272318
0.303086
0.332291
0.351313
0.366073
0.369876
0.367212
0.347913
0.283391
0.120154
-0.0468467
-0.0818032
0.304273
0.35478
0.402144
0.442477
0.478169
0.505927
0.524074
0.517968
0.443835
0.249823
0.0826814
0.0918873
0.328971
0.394768
0.458035
0.515992
0.570196
0.617629
0.656171
0.671317
0.621253
0.446575
0.295147
0.341089
0.354296
0.429741
0.503564
0.573548
0.640824
0.703662
0.760375
0.801592
0.79094
0.660337
0.529258
0.605038
0.379516
0.463
0.542428
0.621871
0.697937
0.773226
0.844912
0.910031
0.936518
0.848693
0.728858
0.85265
0.407151
0.491294
0.576821
0.65933
0.743281
0.825304
0.909928
0.990767
1.04322
0.993764
0.897671
1.06348
0.431931
0.51754
0.602465
0.687791
0.772913
0.860748
0.950374
1.04231
1.11955
1.1044
1.02153
1.22649
0.456216
0.539464
0.622787
0.706183
0.791284
0.879055
0.972688
1.07236
1.16241
1.18562
1.13453
1.34619
0.479073
0.558462
0.637778
0.717375
0.799187
0.884549
0.977508
1.07958
1.18687
1.24126
1.21364
1.43276
0.5002
0.574463
0.648344
0.722744
0.798841
0.879431
0.968143
1.06884
1.17849
1.26705
1.2826
1.44262
0.519555
0.587913
0.655566
0.723577
0.792832
0.866439
0.946696
1.0383
1.14461
1.24632
1.29859
1.45309
0.773808
0.593543
0.460689
0.379728
0.341031
0.323094
0.323272
0.323489
0.33832
0.350688
0.375178
0.393231
0.770763
0.639402
0.480089
0.34357
0.299573
0.300301
0.321085
0.344096
0.373842
0.401751
0.434772
0.464224
0.605621
0.588702
0.414373
0.22311
0.161001
0.176656
0.222155
0.273038
0.327193
0.379047
0.431986
0.481663
0.435108
0.429977
0.273518
0.0904678
0.0417924
0.0772026
0.143739
0.216245
0.290029
0.360681
0.430175
0.49586
0.237673
0.28821
0.127013
-0.0292528
-0.0481193
0.0153304
0.0984454
0.189553
0.274004
0.359272
0.43653
0.514916
0.0437253
0.126632
-0.0183719
-0.138723
-0.114098
-0.0307091
0.0761588
0.17384
0.274307
0.361497
0.451832
0.53017
-0.161171
-0.0337553
-0.153338
-0.224311
-0.164757
-0.051868
0.0645346
0.176749
0.278601
0.37558
0.464356
0.550774
-0.381153
-0.200302
-0.277822
-0.288289
-0.186547
-0.0538038
0.0740752
0.190339
0.295604
0.392581
0.482588
0.567842
-0.605142
-0.368167
-0.378565
-0.322362
-0.181574
-0.0329548
0.0998805
0.2162
0.31994
0.414386
0.501823
0.584349
-0.841444
-0.528273
-0.446079
-0.313808
-0.142959
0.0117776
0.141716
0.25263
0.350657
0.439513
0.521999
0.599768
-1.05217
-0.626838
-0.424703
-0.242758
-0.0657639
0.0791437
0.196659
0.296628
0.385209
0.466355
0.541991
0.613706
-1.15427
-0.554172
-0.26323
-0.0912227
0.0500393
0.164863
0.261035
0.345315
0.422173
0.493909
0.561753
0.626495
0.418702
0.433697
0.449291
0.450861
0.452182
0.439715
0.423142
0.392376
0.352275
0.220372
0.0611605
0.0436113
0.495695
0.520651
0.543689
0.556973
0.566315
0.566139
0.560993
0.539327
0.472637
0.3064
0.136622
0.0993202
0.530863
0.575221
0.617006
0.651821
0.682699
0.705599
0.720213
0.710639
0.634563
0.439605
0.273684
0.27487
0.560033
0.620031
0.677547
0.730057
0.778708
0.821172
0.855247
0.866426
0.813997
0.63782
0.487736
0.530807
0.585874
0.65838
0.724131
0.790362
0.849833
0.909056
0.957679
0.996393
0.980589
0.849428
0.722129
0.796485
0.613239
0.686442
0.764682
0.833934
0.907654
0.972282
1.04096
1.0961
1.11919
1.03006
0.908984
1.03929
0.631872
0.712941
0.790579
0.868687
0.943908
1.02053
1.09494
1.16993
1.2157
1.15438
1.05817
1.2253
0.649773
0.729698
0.808701
0.886409
0.964885
1.04353
1.12609
1.20822
1.27321
1.25392
1.15505
1.35644
0.663509
0.740904
0.816713
0.892518
0.968795
1.04833
1.1324
1.22231
1.30385
1.30765
1.25301
1.44615
0.674362
0.746838
0.81757
0.888457
0.96029
1.03694
1.11984
1.21233
1.30658
1.35835
1.3182
1.52068
0.682503
0.748645
0.813042
0.876935
0.942772
1.01303
1.09142
1.18196
1.28357
1.35884
1.38271
1.53517
0.688697
0.747611
0.804599
0.860706
0.918938
0.980928
1.05084
1.13125
1.22619
1.32641
1.37862
1.53642
-0.407081
-0.28444
-0.0730164
0.00709171
0.0734553
0.138247
0.199759
0.258026
0.314165
0.369711
0.426104
0.484089
0.345248
0.119351
0.154532
0.172275
0.195588
0.229927
0.270176
0.31346
0.358453
0.405452
0.454702
0.506615
0.599009
0.353315
0.306926
0.290206
0.289785
0.304501
0.329499
0.36105
0.397113
0.437017
0.48048
0.526794
0.690154
0.484585
0.410239
0.375536
0.361858
0.364396
0.378923
0.401711
0.430773
0.465279
0.503885
0.544266
0.543759
0.60193
0.659243
0.716505
0.775093
0.836627
0.903127
0.976087
1.05345
1.12851
1.14785
1.07158
0.561727
0.613499
0.664246
0.715026
0.767147
0.821299
0.878987
0.940364
1.00484
1.06547
1.11443
1.21333
0.578965
0.623997
0.668265
0.713405
0.7597
0.807839
0.858561
0.912195
0.967948
1.02502
1.0803
1.11723
0.597121
0.634069
0.672066
0.712173
0.753443
0.796394
0.841369
0.889048
0.93902
0.989342
1.03386
1.02302
-0.481812
-0.334708
-0.105126
-0.0137186
0.0615846
0.133212
0.201357
0.266746
0.330584
0.392884
0.453265
0.511173
0.296712
0.0855687
0.134206
0.165626
0.197587
0.238403
0.284506
0.333939
0.385483
0.437905
0.489665
0.539551
0.571643
0.33586
0.303902
0.297669
0.305777
0.326824
0.357098
0.393959
0.43533
0.47941
0.523639
0.565461
0.682839
0.484557
0.420164
0.397451
0.392334
0.401039
0.420455
0.447739
0.481114
0.51852
0.556345
0.590573
0.566714
0.618008
0.66656
0.714535
0.763861
0.816651
0.874683
0.93969
1.01092
1.08027
1.10669
1.04214
0.587603
0.630008
0.669735
0.709552
0.750589
0.794788
0.842675
0.89523
0.950984
1.00911
1.05937
1.16212
0.607254
0.640106
0.671407
0.703578
0.737565
0.774221
0.814311
0.858049
0.905234
0.955962
1.0127
1.0529
0.626856
0.648851
0.671961
0.697403
0.725209
0.75551
0.789189
0.826181
0.866896
0.911349
0.954073
0.946114
-0.470688
-0.340605
-0.124866
-0.0386502
0.033684
0.103832
0.17011
0.232636
0.292618
0.351773
0.411811
0.47357
0.264384
0.05409
0.0985798
0.12401
0.153869
0.193785
0.238909
0.286505
0.335337
0.385954
0.438807
0.494468
0.517139
0.285998
0.249526
0.240692
0.246878
0.267169
0.297006
0.33281
0.372663
0.416092
0.463143
0.513112
0.612686
0.418495
0.353058
0.325744
0.318364
0.326304
0.345524
0.372435
0.405156
0.443125
0.485199
0.528858
0.537135
0.599218
0.660428
0.721521
0.783902
0.849265
0.919715
0.996933
1.07935
1.16067
1.18852
1.12587
0.553448
0.609096
0.663615
0.718067
0.773743
0.831461
0.892799
0.958068
1.02703
1.09318
1.14974
1.25578
0.568988
0.617778
0.665713
0.714329
0.763909
0.815247
0.869175
0.926144
0.985591
1.04696
1.10776
1.15105
0.585556
0.626099
0.66763
0.710979
0.755217
0.800941
0.848599
0.898931
0.951729
1.00517
1.05352
1.04777
-0.335451
-0.207055
0.0126157
0.102509
0.180317
0.255564
0.326723
0.393982
0.458489
0.520519
0.580218
0.637618
0.380653
0.175146
0.223591
0.256585
0.292606
0.337914
0.387847
0.44003
0.493041
0.545945
0.59764
0.647836
0.625646
0.398975
0.36995
0.367461
0.380218
0.406078
0.440623
0.48074
0.524162
0.569144
0.613631
0.656092
0.718759
0.528289
0.468234
0.449246
0.448746
0.4623
0.486177
0.517023
0.552773
0.591162
0.629133
0.664427
0.693184
0.744761
0.793761
0.842261
0.892175
0.945563
1.00421
1.07001
1.14255
1.21415
1.24306
1.1747
0.696822
0.740574
0.781663
0.822748
0.864929
0.910146
0.958922
1.01232
1.06905
1.12858
1.17956
1.27887
0.700174
0.735638
0.769303
0.803509
0.839198
0.877256
0.918457
0.96306
1.01092
1.0622
1.11855
1.15495
0.704075
0.730275
0.756956
0.785254
0.815341
0.847423
0.882431
0.92032
0.961525
1.00604
1.04779
1.03592
0.72318
0.56007
0.48062
0.438807
0.418529
0.414092
0.421564
0.437936
0.461595
0.492075
0.526723
0.560822
0.725294
0.600735
0.52914
0.487889
0.465435
0.457107
0.459649
0.470948
0.490061
0.517297
0.54869
0.57235
0.721481
0.625465
0.563588
0.525004
0.502245
0.491593
0.490595
0.497723
0.512677
0.53653
0.562615
0.576785
0.716304
0.641218
0.588476
0.553302
0.531169
0.519172
0.515513
0.518906
0.529228
0.547138
0.562738
0.564571
0.618584
0.645802
0.678334
0.714329
0.751513
0.789877
0.829936
0.871934
0.915222
0.957069
0.986922
0.956354
0.64635
0.660522
0.687593
0.720124
0.753654
0.78793
0.823465
0.860039
0.89635
0.928228
0.943482
0.905473
0.67635
0.677787
0.69841
0.727327
0.757185
0.787673
0.818956
0.850499
0.880454
0.903843
0.909654
0.872373
0.709549
0.702533
0.712391
0.73576
0.76143
0.7881
0.815397
0.84243
0.86689
0.884212
0.884632
0.851691
0.734553
0.576366
0.507295
0.475341
0.463436
0.46512
0.477242
0.497553
0.524782
0.557208
0.590292
0.615679
0.753598
0.63327
0.569879
0.539185
0.524925
0.522697
0.529696
0.544623
0.566802
0.595623
0.625022
0.641361
0.765466
0.673294
0.619974
0.590569
0.575833
0.571267
0.574709
0.585343
0.603259
0.628912
0.654986
0.662785
0.774609
0.703649
0.65843
0.632775
0.618532
0.612575
0.613387
0.620266
0.633725
0.654429
0.67202
0.674803
0.648872
0.658534
0.674208
0.694332
0.716908
0.741995
0.770007
0.801075
0.834824
0.869805
0.897425
0.868632
0.673338
0.669192
0.67837
0.694234
0.712444
0.733018
0.756098
0.781594
0.808265
0.833135
0.8452
0.807712
0.695431
0.68008
0.683097
0.695067
0.709466
0.725936
0.744651
0.764974
0.78525
0.801459
0.803246
0.765439
0.712481
0.695202
0.689679
0.696625
0.707036
0.719668
0.734409
0.750253
0.765166
0.774946
0.770879
0.735915
0.651183
0.496617
0.424705
0.389492
0.374997
0.37563
0.387564
0.40786
0.435023
0.468842
0.506746
0.54396
0.658529
0.540389
0.475002
0.439491
0.422233
0.418562
0.425266
0.440248
0.462679
0.493119
0.527639
0.553339
0.659472
0.568301
0.511483
0.477804
0.45965
0.453206
0.456038
0.466568
0.484632
0.511504
0.540272
0.555941
0.658487
0.587097
0.538432
0.507421
0.489303
0.481082
0.480888
0.487407
0.500567
0.521261
0.539326
0.541111
0.605406
0.63605
0.67202
0.71103
0.750829
0.791511
0.833694
0.877667
0.922918
0.966921
0.999334
0.972497
0.632111
0.649249
0.679587
0.714874
0.750611
0.786735
0.823839
0.861756
0.899308
0.932426
0.949334
0.913871
0.661276
0.665188
0.688896
0.720238
0.751874
0.78371
0.816033
0.848338
0.878873
0.902854
0.909491
0.87377
0.694817
0.689238
0.701729
0.72708
0.75404
0.781556
0.809379
0.836648
0.861136
0.878381
0.879005
0.846855
0.757401
0.605263
0.539985
0.511901
0.504285
0.510578
0.527079
0.551033
0.580666
0.613921
0.646597
0.672172
0.766174
0.650217
0.590247
0.562548
0.552124
0.554163
0.565377
0.583923
0.60846
0.637697
0.665344
0.681772
0.76943
0.680368
0.629465
0.602778
0.591347
0.590606
0.597986
0.61209
0.632227
0.657793
0.681184
0.686489
0.77121
0.702391
0.659108
0.635321
0.623847
0.621308
0.625791
0.636027
0.65171
0.672183
0.685871
0.686075
0.711197
0.726944
0.747469
0.771287
0.796697
0.823931
0.853489
0.885545
0.919744
0.954586
0.981038
0.948801
0.721157
0.725612
0.741079
0.761459
0.783004
0.806054
0.8309
0.857525
0.884724
0.909473
0.920474
0.880135
0.731871
0.726321
0.736674
0.75381
0.771914
0.791116
0.811776
0.833391
0.854325
0.870571
0.871519
0.831529
0.741945
0.733494
0.735639
0.748076
0.762417
0.777926
0.794766
0.812038
0.82779
0.837799
0.833208
0.796626
0.710447
0.651213
0.606498
0.574902
0.553725
0.540975
0.535139
0.535116
0.540263
0.549091
0.546854
0.532957
0.704965
0.65749
0.619666
0.591515
0.571588
0.558472
0.550955
0.547969
0.548535
0.549913
0.538093
0.530815
0.699428
0.661296
0.629388
0.604458
0.585813
0.572538
0.563681
0.558298
0.555346
0.552488
0.539498
0.534323
0.694585
0.663464
0.636616
0.614584
0.597334
0.584074
0.574263
0.566963
0.561379
0.555706
0.543527
0.538818
0.689691
0.66465
0.642147
0.622822
0.606844
0.593678
0.583106
0.57426
0.566719
0.559052
0.547343
0.543249
0.685631
0.665074
0.64647
0.629431
0.614822
0.601771
0.590697
0.580592
0.571533
0.562287
0.550935
0.547007
0.681654
0.664991
0.649944
0.634774
0.621584
0.60841
0.597156
0.585808
0.575791
0.565243
0.554057
0.550467
0.678237
0.664517
0.652228
0.638695
0.626654
0.613516
0.602146
0.589941
0.579277
0.567885
0.556994
0.553443
0.675703
0.662952
0.653352
0.639958
0.629584
0.615703
0.605109
0.591926
0.581633
0.569725
0.559665
0.556085
0.672968
0.661425
0.65127
0.639117
0.628091
0.615281
0.60417
0.592017
0.581655
0.570899
0.561845
0.558267
0.671512
0.659653
0.648744
0.636665
0.625176
0.612872
0.601779
0.590558
0.580683
0.571137
0.563264
0.559856
0.670924
0.658931
0.647565
0.635488
0.623688
0.611641
0.600538
0.589816
0.580181
0.571239
0.563882
0.560707
0.751331
0.734246
0.729131
0.74497
0.766123
0.789088
0.812751
0.835765
0.855796
0.868444
0.866579
0.839078
0.760624
0.753415
0.742551
0.753317
0.7706
0.790204
0.810615
0.830188
0.846602
0.856349
0.853507
0.831358
0.763807
0.759681
0.751498
0.760134
0.774502
0.79129
0.808808
0.825474
0.839055
0.846634
0.844151
0.826902
0.765863
0.762918
0.758127
0.765648
0.777833
0.792159
0.807259
0.821418
0.832835
0.839178
0.837355
0.824283
0.767617
0.765529
0.763279
0.770113
0.780449
0.792769
0.805621
0.817821
0.827427
0.833186
0.832386
0.822995
0.769564
0.768135
0.767709
0.773792
0.782666
0.793086
0.804172
0.814542
0.82299
0.828396
0.828759
0.822347
0.771385
0.770678
0.771494
0.776936
0.784439
0.793319
0.802677
0.811748
0.819095
0.824759
0.826101
0.822255
0.773183
0.773177
0.774909
0.779809
0.786217
0.793847
0.801807
0.809864
0.816365
0.822411
0.824408
0.822388
0.774712
0.775449
0.778057
0.782622
0.788578
0.795274
0.802424
0.809653
0.81566
0.821749
0.824094
0.822917
0.775858
0.777262
0.780631
0.785649
0.791689
0.798401
0.805281
0.812109
0.817787
0.82337
0.825105
0.823812
0.776369
0.778141
0.782224
0.787873
0.794505
0.801549
0.808682
0.815278
0.820945
0.825434
0.826493
0.824499
0.77624
0.778206
0.782626
0.788606
0.795558
0.80282
0.810114
0.816658
0.822309
0.826156
0.826867
0.82448
0.78229
0.727265
0.690375
0.667491
0.654041
0.647314
0.646016
0.64953
0.658064
0.670777
0.674692
0.668242
0.789019
0.746248
0.715884
0.696679
0.684274
0.677195
0.674175
0.674747
0.67866
0.684356
0.6789
0.676354
0.79504
0.761819
0.737657
0.721093
0.709939
0.702642
0.698321
0.696381
0.696549
0.697392
0.689613
0.686617
0.800495
0.774902
0.755499
0.742137
0.732192
0.724943
0.719546
0.715553
0.712629
0.709839
0.700923
0.69756
0.805443
0.785985
0.771134
0.760095
0.751547
0.744407
0.738186
0.732476
0.727013
0.721264
0.711457
0.707736
0.809909
0.795572
0.784223
0.775966
0.768603
0.761829
0.754841
0.747756
0.740112
0.731881
0.720838
0.716918
0.813868
0.803729
0.795745
0.789543
0.783549
0.777147
0.769539
0.761337
0.751824
0.741596
0.72935
0.725026
0.817178
0.810342
0.804866
0.800647
0.796021
0.789944
0.781974
0.772874
0.761997
0.750284
0.736911
0.732141
0.819479
0.814667
0.810769
0.808292
0.804179
0.798992
0.790326
0.781294
0.769339
0.757296
0.743478
0.73812
0.820545
0.81617
0.813029
0.810721
0.807374
0.802029
0.794007
0.784733
0.773391
0.761513
0.748764
0.742814
0.820539
0.815766
0.812317
0.809637
0.805982
0.800713
0.793104
0.784272
0.773762
0.76273
0.751483
0.745703
0.820102
0.815064
0.811217
0.808005
0.804004
0.798702
0.791378
0.782849
0.772872
0.762309
0.751907
0.746559
0.732926
0.715028
0.698321
0.698938
0.705256
0.714384
0.725524
0.737409
0.747821
0.752873
0.745442
0.715115
0.733266
0.724924
0.704005
0.700449
0.703379
0.70943
0.717458
0.72602
0.732922
0.734653
0.725926
0.699476
0.730113
0.72418
0.706062
0.700903
0.701444
0.704903
0.710211
0.715878
0.719853
0.719266
0.709911
0.687737
0.725896
0.721055
0.706197
0.700376
0.699141
0.700469
0.703504
0.706795
0.708567
0.706396
0.697312
0.67809
0.722023
0.717846
0.705554
0.69931
0.696749
0.696202
0.697243
0.698417
0.6983
0.69512
0.686274
0.67045
0.718533
0.714958
0.704406
0.697836
0.694163
0.692022
0.691416
0.690779
0.68935
0.685373
0.677328
0.663608
0.715616
0.712422
0.703324
0.69621
0.691837
0.688075
0.686127
0.683786
0.681209
0.676757
0.669147
0.658077
0.713026
0.710152
0.702177
0.694797
0.689888
0.684901
0.681853
0.678161
0.67468
0.669811
0.662805
0.653224
0.710954
0.708047
0.70168
0.693859
0.689452
0.683148
0.67992
0.674735
0.670848
0.665281
0.658513
0.649737
0.709105
0.706562
0.701163
0.694795
0.690171
0.68461
0.680619
0.675431
0.670604
0.664595
0.656975
0.64798
0.707916
0.705703
0.701326
0.696198
0.691952
0.687178
0.683096
0.678013
0.672712
0.665966
0.657511
0.647592
0.707433
0.705476
0.701473
0.696969
0.692899
0.68858
0.684474
0.679536
0.674011
0.666938
0.658127
0.647721
0.656405
0.599943
0.55852
0.530409
0.512726
0.503312
0.500603
0.503388
0.511106
0.522415
0.521992
0.507521
0.654239
0.608862
0.573639
0.548406
0.531463
0.521291
0.516544
0.516083
0.518924
0.522464
0.512255
0.504666
0.651722
0.615106
0.585249
0.562726
0.546633
0.535921
0.529519
0.52636
0.525425
0.524461
0.512876
0.50776
0.649519
0.619523
0.594204
0.574179
0.559036
0.54803
0.540325
0.535021
0.531162
0.527164
0.516361
0.511735
0.647038
0.622806
0.601392
0.58373
0.569475
0.558272
0.549511
0.542411
0.53637
0.530158
0.51964
0.515768
0.645077
0.625157
0.607212
0.591587
0.578294
0.566992
0.557389
0.548872
0.541028
0.533078
0.522819
0.519068
0.642847
0.626969
0.612
0.598249
0.585834
0.574385
0.564159
0.554364
0.545212
0.535898
0.525527
0.522219
0.640974
0.628084
0.615489
0.603293
0.591633
0.580124
0.569449
0.558707
0.548644
0.538374
0.528143
0.524852
0.639079
0.628172
0.617211
0.605862
0.594881
0.583165
0.572451
0.56113
0.550801
0.54027
0.530438
0.527283
0.637443
0.626954
0.61622
0.605212
0.594174
0.582769
0.572001
0.561096
0.551042
0.541206
0.532461
0.529218
0.636422
0.625278
0.614136
0.602822
0.591579
0.580374
0.569818
0.559599
0.550176
0.541363
0.533799
0.530698
0.636087
0.624499
0.613091
0.601561
0.590172
0.579062
0.568629
0.558789
0.549712
0.541419
0.534437
0.531558
0.73744
0.720847
0.717621
0.734849
0.756782
0.780091
0.803818
0.826584
0.846166
0.858276
0.856003
0.828643
0.746924
0.740062
0.730404
0.741974
0.75949
0.778987
0.798993
0.817911
0.833448
0.842185
0.838511
0.815999
0.750114
0.746233
0.738757
0.747595
0.761748
0.777973
0.79472
0.810336
0.822708
0.828942
0.825194
0.807127
0.752234
0.749398
0.744824
0.752077
0.763571
0.776978
0.790899
0.803719
0.813578
0.818275
0.814882
0.800676
0.7539
0.751817
0.749392
0.755488
0.764791
0.775829
0.787223
0.797772
0.80559
0.809444
0.806775
0.79595
0.755765
0.754253
0.753235
0.758282
0.765714
0.774628
0.783885
0.792433
0.798782
0.80211
0.800374
0.792351
0.757399
0.756529
0.756401
0.760561
0.766281
0.773491
0.780699
0.787824
0.79278
0.796268
0.795274
0.789624
0.759043
0.758775
0.759279
0.76268
0.767044
0.772829
0.778386
0.784336
0.788247
0.791956
0.79154
0.787589
0.760358
0.760797
0.761802
0.764979
0.768409
0.773468
0.77768
0.783035
0.785946
0.789962
0.789586
0.786384
0.761393
0.762315
0.764147
0.767443
0.771166
0.775821
0.779998
0.784517
0.787342
0.790513
0.789742
0.786249
0.761781
0.762988
0.765568
0.76943
0.773824
0.778691
0.783201
0.787369
0.790257
0.792302
0.790882
0.78665
0.761545
0.762935
0.765912
0.770094
0.77488
0.779922
0.784677
0.788757
0.791716
0.793094
0.791345
0.786767
0.772509
0.718868
0.683137
0.661832
0.650659
0.646938
0.649015
0.655783
0.666631
0.679306
0.679967
0.670461
0.773711
0.731744
0.702187
0.683838
0.673291
0.668858
0.668986
0.672792
0.679266
0.685689
0.677963
0.674114
0.774889
0.741995
0.718059
0.702187
0.692489
0.68751
0.686106
0.687357
0.690325
0.692623
0.684243
0.680588
0.776145
0.7505
0.731113
0.717873
0.70906
0.703863
0.701203
0.700409
0.70054
0.699966
0.69145
0.688244
0.777389
0.757569
0.74232
0.731297
0.723561
0.718237
0.714546
0.712041
0.709762
0.706798
0.698502
0.695078
0.77866
0.763705
0.751813
0.743108
0.736326
0.731151
0.726553
0.722677
0.718359
0.713454
0.704561
0.701429
0.77982
0.768829
0.760003
0.753249
0.747562
0.742626
0.737175
0.732273
0.726029
0.719588
0.71018
0.706785
0.780776
0.772911
0.766473
0.761366
0.756814
0.752072
0.746118
0.740353
0.732747
0.725174
0.715046
0.711616
0.781259
0.775292
0.770283
0.766734
0.762492
0.758671
0.751673
0.746284
0.737195
0.729817
0.719243
0.715653
0.781214
0.775583
0.771223
0.767644
0.76411
0.7599
0.753738
0.747784
0.73965
0.732105
0.722853
0.718809
0.780868
0.774781
0.770026
0.76612
0.762284
0.758041
0.752361
0.746655
0.739464
0.732496
0.724653
0.72076
0.780562
0.77418
0.769048
0.76477
0.760639
0.756304
0.750919
0.74535
0.738711
0.732003
0.724933
0.721354
0.761762
0.748191
0.738345
0.744342
0.754578
0.766636
0.779943
0.793393
0.804799
0.810317
0.802669
0.771256
0.761048
0.754879
0.739503
0.740814
0.747499
0.756415
0.76667
0.776871
0.78496
0.787357
0.778723
0.751597
0.756848
0.75207
0.738138
0.737173
0.741169
0.747379
0.754887
0.762275
0.767564
0.767854
0.758809
0.736376
0.751264
0.747146
0.735461
0.73315
0.735087
0.738958
0.744214
0.749214
0.752492
0.751291
0.742781
0.72361
0.746183
0.74244
0.732579
0.729219
0.729519
0.731293
0.734522
0.73739
0.738928
0.736789
0.728697
0.713254
0.741439
0.73816
0.729481
0.725236
0.724176
0.724082
0.725697
0.72666
0.727075
0.724113
0.717041
0.703993
0.737551
0.73447
0.726932
0.72146
0.719647
0.717457
0.717963
0.716884
0.716549
0.712812
0.706437
0.69637
0.734014
0.731155
0.724453
0.718238
0.715742
0.712033
0.711519
0.708928
0.707878
0.703533
0.69801
0.689806
0.731316
0.728125
0.723286
0.715608
0.714218
0.708143
0.708385
0.703229
0.702792
0.69664
0.692046
0.684972
0.728813
0.726172
0.721778
0.716014
0.713506
0.708938
0.70749
0.703261
0.700929
0.695068
0.689262
0.682692
0.727349
0.725163
0.721624
0.717263
0.714781
0.711276
0.709384
0.705627
0.702368
0.696153
0.689535
0.68192
0.726936
0.725074
0.721805
0.718209
0.715718
0.712834
0.710698
0.707261
0.7035
0.697325
0.690303
0.681849
)
;

boundaryField
{
    rotor
    {
        type            zeroGradient;
    }
    stator
    {
        type            zeroGradient;
    }
    front
    {
        type            empty;
    }
    back
    {
        type            empty;
    }
}


// ************************************************************************* //
