/*--------------------------------*- C++ -*----------------------------------*\
  =========                 |
  \\      /  F ield         | OpenFOAM: The Open Source CFD Toolbox
   \\    /   O peration     | Website:  https://openfoam.org
    \\  /    A nd           | Version:  6
     \\/     M anipulation  |
\*---------------------------------------------------------------------------*/
FoamFile
{
    version     2.0;
    format      ascii;
    class       volVectorField;
    location    "2000";
    object      U;
}
// * * * * * * * * * * * * * * * * * * * * * * * * * * * * * * * * * * * * * //

dimensions      [0 1 -1 0 0 0 0];

internalField   nonuniform List<vector> 
3072
(
(0.275349 1.3108 0)
(0.278743 1.33785 0)
(0.328528 1.256 6.35065e-21)
(0.402509 1.19883 -2.64843e-19)
(0.458897 1.13376 3.28696e-19)
(0.512573 1.09955 -1.18801e-19)
(0.563928 1.05114 -4.79389e-20)
(0.622764 1.00953 -2.82829e-19)
(0.677741 0.956841 5.27084e-19)
(0.736623 0.908931 -1.6937e-19)
(0.79198 0.852338 2.57527e-19)
(0.851052 0.798357 1.81421e-19)
(0.402202 1.03097 -5.44702e-20)
(0.284244 0.89209 -1.7092e-19)
(0.216423 0.758653 6.40237e-20)
(0.203162 0.658839 0)
(0.209343 0.598197 1.36517e-20)
(0.220967 0.555178 -7.23019e-21)
(0.237204 0.520802 0)
(0.257253 0.491679 0)
(0.280673 0.464104 0)
(0.305645 0.43734 6.0607e-21)
(0.332053 0.410226 -2.30231e-19)
(0.358288 0.383224 -1.96608e-21)
(0.454111 0.865889 6.1623e-20)
(0.216407 0.68146 0)
(0.131174 0.51422 0)
(0.110774 0.42265 3.15854e-20)
(0.111726 0.37595 -1.52138e-20)
(0.119393 0.345321 2.32368e-20)
(0.130336 0.321186 -2.51892e-20)
(0.143413 0.300426 0)
(0.158303 0.281238 0)
(0.174219 0.262805 -2.6692e-20)
(0.190879 0.244543 -4.69736e-20)
(0.207715 0.226454 1.27965e-19)
(0.358394 0.86279 -7.26402e-20)
(0.128444 0.636987 -2.76516e-20)
(0.0689919 0.457775 1.77128e-20)
(0.0606104 0.367064 2.97448e-20)
(0.0674213 0.323688 -6.66224e-20)
(0.0785524 0.295604 6.40892e-20)
(0.0912585 0.273062 2.03071e-20)
(0.104871 0.2532 8.50736e-21)
(0.119284 0.234797 -2.29716e-20)
(0.13423 0.217255 2.2266e-20)
(0.149561 0.200183 6.7438e-20)
(0.165031 0.183421 -6.69395e-20)
(0.268858 0.926394 0)
(0.0343609 0.663025 2.1467e-20)
(0.0123989 0.454971 2.71788e-20)
(0.021505 0.361147 -5.64224e-20)
(0.0364823 0.316593 -6.23182e-21)
(0.0522153 0.287409 -3.09892e-20)
(0.0681455 0.263645 -1.92349e-20)
(0.0840894 0.242565 -7.41643e-21)
(0.100296 0.22301 -1.9795e-20)
(0.116511 0.204553 1.97841e-20)
(0.132856 0.186703 -9.49109e-20)
(0.149086 0.16936 1.49956e-19)
(0.126568 0.996954 7.70787e-20)
(-0.0667002 0.690321 -2.2665e-20)
(-0.0460562 0.463744 -7.04235e-20)
(-0.017083 0.365756 0)
(0.00707694 0.318645 9.96758e-20)
(0.0281636 0.287151 -8.52038e-20)
(0.0477316 0.261498 0)
(0.0666829 0.238771 4.8663e-21)
(0.0851834 0.217932 -4.85774e-21)
(0.103381 0.198318 0)
(0.121207 0.179584 -8.8635e-21)
(0.138781 0.16131 7.99311e-20)
(-0.0172545 1.05681 0)
(-0.183594 0.716489 9.66641e-20)
(-0.110703 0.471612 -7.4299e-20)
(-0.0589293 0.369225 0)
(-0.0242734 0.318906 5.13127e-20)
(0.00286084 0.284922 -2.29145e-20)
(0.0266643 0.257493 -6.26735e-20)
(0.0489499 0.233514 -2.98589e-22)
(0.0700686 0.211783 2.98257e-22)
(0.0903676 0.191474 4.57842e-20)
(0.109805 0.172157 -5.59439e-20)
(0.12867 0.153225 -2.74624e-19)
(-0.195217 1.11017 0)
(-0.312635 0.736128 -9.18476e-20)
(-0.181774 0.474759 1.11937e-19)
(-0.104459 0.367297 -8.92484e-20)
(-0.0576331 0.313573 0)
(-0.0236422 0.277485 7.79668e-20)
(0.00505353 0.248938 -2.25364e-20)
(0.030824 0.224548 3.08039e-20)
(0.0547287 0.202631 -4.49911e-20)
(0.0769525 0.182366 -6.45416e-20)
(0.0979399 0.162939 -1.65137e-20)
(0.117756 0.143893 2.01577e-19)
(-0.418384 1.12287 0)
(-0.456216 0.744225 1.76993e-19)
(-0.260096 0.469526 1.50814e-19)
(-0.15302 0.357035 8.70228e-20)
(-0.0920427 0.300561 -1.0121e-19)
(-0.0499663 0.263517 0)
(-0.0160541 0.235189 0)
(0.0133881 0.211497 0)
(0.0397939 0.190449 0)
(0.0637977 0.170935 5.51898e-20)
(0.0858967 0.152133 -9.69164e-20)
(0.106398 0.133411 9.69386e-20)
(-0.627146 1.05144 0)
(-0.615093 0.717134 -1.72166e-19)
(-0.343764 0.444517 8.7334e-22)
(-0.202554 0.333096 -7.99473e-20)
(-0.125365 0.277532 -3.45259e-20)
(-0.0744066 0.242327 3.17711e-20)
(-0.035157 0.21627 0)
(-0.00234468 0.194795 4.51963e-21)
(0.0261867 0.175684 -1.4381e-19)
(0.0515221 0.157738 0)
(0.0743292 0.140172 1.982e-19)
(0.0950688 0.122293 -1.27411e-19)
(-0.865695 0.74779 0)
(-0.756716 0.580747 -1.92085e-19)
(-0.416453 0.379006 -2.55398e-19)
(-0.245486 0.287683 1.42908e-19)
(-0.153504 0.24216 9.52046e-20)
(-0.0944994 0.213782 -5.53205e-20)
(-0.0507523 0.192841 1.86608e-21)
(-0.015372 0.175235 -4.0185e-20)
(0.0145895 0.159088 5.85134e-20)
(0.0406796 0.143418 -1.76911e-19)
(0.0637215 0.127608 -3.09713e-19)
(0.0842702 0.111003 3.67594e-19)
(-0.897915 -0.0366384 1.85425e-19)
(-0.7346 0.24185 4.3318e-19)
(-0.434179 0.246684 -4.04555e-21)
(-0.266678 0.214606 0)
(-0.170105 0.19424 0)
(-0.107341 0.179196 2.90444e-20)
(-0.0614152 0.166293 1.13814e-19)
(-0.0249575 0.153969 9.33692e-20)
(0.00546507 0.141535 0)
(0.0316068 0.128633 1.74963e-19)
(0.0544065 0.114935 0)
(0.0743553 0.0999726 1.44807e-20)
(0.902391 0.736389 -1.12719e-18)
(0.954931 0.676497 4.62971e-19)
(0.99845 0.610662 -6.50589e-19)
(1.0419 0.548244 -2.92899e-19)
(1.0781 0.482946 -2.60803e-19)
(1.11378 0.419989 0)
(1.14302 0.357777 0)
(1.17183 0.29624 3.47884e-19)
(1.1816 0.221586 -3.8823e-19)
(1.2944 0.185441 0)
(1.31169 0.205564 0)
(1.1076 0.244911 -9.49397e-21)
(0.384353 0.355355 2.00544e-19)
(0.409691 0.327369 0)
(0.434242 0.298679 -3.4279e-20)
(0.45784 0.270639 1.15236e-19)
(0.481224 0.243559 5.97259e-20)
(0.504839 0.218874 2.8926e-19)
(0.530308 0.197578 -4.32289e-19)
(0.561545 0.182672 5.76659e-20)
(0.609254 0.17782 0)
(0.698903 0.206313 0)
(0.841585 0.303218 0)
(0.942463 0.418068 -1.93149e-20)
(0.224684 0.208317 7.03684e-20)
(0.241454 0.190309 -1.95644e-19)
(0.258137 0.172451 6.93878e-20)
(0.274714 0.155179 1.75089e-19)
(0.291642 0.138759 -1.75104e-19)
(0.309384 0.123738 0)
(0.329253 0.110691 0)
(0.353795 0.101038 -1.65726e-20)
(0.391832 0.0985994 6.43663e-20)
(0.472299 0.115981 0)
(0.629636 0.182941 0)
(0.821459 0.326315 -2.79236e-20)
(0.180593 0.166842 -5.83262e-21)
(0.196154 0.150453 1.64807e-19)
(0.211803 0.134278 1.46449e-19)
(0.227674 0.118484 -1.4647e-19)
(0.244126 0.103208 0)
(0.261597 0.0886633 9.94573e-20)
(0.28102 0.0750733 0)
(0.304493 0.0631368 1.65952e-19)
(0.339804 0.0553308 -5.1061e-20)
(0.416296 0.0596652 0)
(0.581404 0.0971158 -6.61371e-20)
(0.802211 0.21062 2.67717e-19)
(0.165371 0.15219 -9.75994e-20)
(0.181597 0.135223 0)
(0.198051 0.118257 0)
(0.214841 0.10143 0)
(0.232444 0.084686 0)
(0.251272 0.0681995 -1.99768e-19)
(0.272272 0.0519803 -3.04039e-21)
(0.297441 0.0361842 -9.99122e-20)
(0.334282 0.0211802 0)
(0.413273 0.00913712 -1.0044e-19)
(0.594098 0.00831034 6.09045e-20)
(0.867481 0.0804054 -5.31571e-20)
(0.156109 0.143265 7.59021e-21)
(0.173404 0.125167 -2.57252e-19)
(0.190799 0.106876 1.65922e-19)
(0.208703 0.0882628 2.18721e-20)
(0.227487 0.0693255 1.71217e-20)
(0.247843 0.0500234 3.34831e-19)
(0.270679 0.0303736 8.63112e-21)
(0.298056 0.0096846 -3.97784e-19)
(0.336889 -0.0138556 -1.69304e-19)
(0.417644 -0.0442064 9.47881e-20)
(0.611541 -0.0861727 -2.23813e-19)
(0.916985 -0.0698332 -4.34543e-19)
(0.146986 0.134417 3.47954e-19)
(0.16509 0.115226 1.52697e-19)
(0.183189 0.0955187 0)
(0.201731 0.0749698 0)
(0.22125 0.0535247 1.8101e-20)
(0.242508 0.031064 -2.23626e-19)
(0.266599 0.00732229 4.01462e-19)
(0.29545 -0.0188933 -1.08713e-22)
(0.335834 -0.0510575 1.64913e-19)
(0.41749 -0.0991786 0)
(0.616765 -0.180379 -3.75471e-20)
(0.914088 -0.217208 -5.16035e-20)
(0.136815 0.124573 -1.13097e-19)
(0.155256 0.104641 -1.45206e-19)
(0.17357 0.0836215 1.76009e-19)
(0.192101 0.0613031 -2.08747e-19)
(0.211593 0.0373708 -2.41782e-20)
(0.232821 0.011665 4.80854e-19)
(0.257096 -0.0163808 -2.65369e-19)
(0.286763 -0.0482162 1.5419e-19)
(0.327782 -0.0893391 0)
(0.407836 -0.15489 1.19837e-19)
(0.609514 -0.274097 1.09117e-19)
(0.895764 -0.355814 -7.35607e-19)
(0.125666 0.114109 1.43811e-19)
(0.14403 0.0937297 -1.43835e-19)
(0.161887 0.0718275 -1.7539e-19)
(0.179765 0.0480183 -4.16847e-19)
(0.198296 0.0220087 4.50967e-19)
(0.218485 -0.00672371 -4.8445e-19)
(0.241667 -0.0388429 0)
(0.270175 -0.076632 -1.52723e-19)
(0.310199 -0.126797 0)
(0.38687 -0.209814 0)
(0.579927 -0.364801 0)
(0.840289 -0.516065 3.58253e-19)
(0.114116 0.103432 1.27449e-19)
(0.13187 0.0830513 -3.254e-19)
(0.148752 0.060667 3.67296e-19)
(0.165255 0.0359353 3.9646e-19)
(0.182027 0.00835067 2.15014e-19)
(0.199953 -0.022714 0)
(0.220407 -0.0585237 0)
(0.245849 -0.101892 3.06902e-19)
(0.281512 -0.161056 0)
(0.348317 -0.261143 -1.24617e-19)
(0.523054 -0.454209 1.31972e-19)
(0.760381 -0.695186 -6.43416e-19)
(0.102669 0.0929986 -2.93061e-19)
(0.119376 0.0730049 3.22273e-19)
(0.134827 0.0506329 -3.63795e-19)
(0.149424 0.0255522 -1.02751e-18)
(0.163719 -0.00281564 1.89246e-21)
(0.178351 -0.0352925 9.30647e-21)
(0.194361 -0.0736887 -2.67736e-19)
(0.213512 -0.121526 -3.02766e-19)
(0.240218 -0.188112 0)
(0.288664 -0.300875 3.62404e-19)
(0.405701 -0.522108 1.21234e-19)
(0.640394 -0.843534 -4.86653e-19)
(0.0917227 0.0831797 -1.13378e-20)
(0.107041 0.063928 0)
(0.120734 0.0420256 0)
(0.133112 0.0171969 1.92068e-19)
(0.144467 -0.0110475 6.53026e-19)
(0.155049 -0.0437594 -2.41563e-19)
(0.165159 -0.0829315 6.27981e-21)
(0.175405 -0.132536 -1.31532e-19)
(0.187143 -0.201829 -1.58874e-19)
(0.20562 -0.316819 -2.2109e-19)
(0.255377 -0.551483 0)
(0.301012 -1.20095 2.55623e-19)
(1.38187 -0.254319 5.91133e-21)
(1.31698 -0.216566 0)
(1.26018 -0.282489 -2.8002e-20)
(1.2102 -0.369986 0)
(1.16277 -0.43662 -4.98621e-19)
(1.12667 -0.498367 4.82364e-19)
(1.07914 -0.557 0)
(1.03467 -0.618185 6.84715e-19)
(0.976997 -0.674125 -1.08149e-18)
(0.92455 -0.733046 6.71023e-19)
(0.866232 -0.789627 2.57067e-20)
(0.810692 -0.848512 -1.25668e-20)
(0.999618 -0.383498 -5.65325e-20)
(0.883719 -0.199104 3.5136e-20)
(0.733761 -0.164219 -3.73357e-20)
(0.65216 -0.170842 0)
(0.603302 -0.186928 1.29084e-19)
(0.56669 -0.204113 -1.22722e-19)
(0.534913 -0.224029 0)
(0.506372 -0.24641 -8.33595e-20)
(0.478451 -0.271392 1.5154e-19)
(0.450827 -0.297566 -9.42813e-20)
(0.422727 -0.324777 -2.85902e-20)
(0.394893 -0.351569 -4.0391e-20)
(0.926889 -0.336393 -1.0508e-20)
(0.70859 -0.139955 0)
(0.520163 -0.0913165 2.78297e-20)
(0.431378 -0.0867532 0)
(0.387103 -0.0945099 0)
(0.357835 -0.105539 5.41254e-20)
(0.334112 -0.118574 -2.18317e-19)
(0.313112 -0.133066 1.36375e-19)
(0.293407 -0.148974 -2.77398e-20)
(0.274407 -0.165659 0)
(0.255673 -0.182957 1.88237e-21)
(0.237237 -0.200358 -1.90872e-20)
(0.942425 -0.241422 -5.12696e-20)
(0.672726 -0.0589414 -9.23606e-21)
(0.467872 -0.0348446 -2.36738e-20)
(0.377568 -0.0404221 -8.25802e-20)
(0.334653 -0.0528236 6.66556e-20)
(0.306794 -0.0662089 5.60374e-20)
(0.284136 -0.0803137 0)
(0.26407 -0.0947204 0)
(0.245305 -0.109927 -1.57743e-20)
(0.227542 -0.125396 0)
(0.210212 -0.141367 7.30719e-21)
(0.193426 -0.157321 1.50972e-20)
(0.982171 -0.145512 -6.24271e-20)
(0.686044 0.0264266 7.06927e-21)
(0.465108 0.0163637 5.05743e-20)
(0.371429 -0.00492349 0)
(0.327091 -0.0242582 0)
(0.297606 -0.0420208 -5.62139e-20)
(0.273592 -0.0586629 0)
(0.252104 -0.0753314 3.89179e-20)
(0.232357 -0.0918145 -1.26871e-20)
(0.213601 -0.108577 -1.11431e-20)
(0.195746 -0.125183 -5.20296e-20)
(0.178252 -0.141997 4.14216e-20)
(1.03669 0.0138739 1.48628e-19)
(0.707744 0.123543 2.71986e-20)
(0.473807 0.0710922 -4.83284e-20)
(0.376101 0.0312761 -7.52839e-21)
(0.32863 0.00321657 -7.66511e-20)
(0.296696 -0.0194975 1.10338e-19)
(0.270597 -0.0397673 -6.09051e-20)
(0.247446 -0.0591572 2.05303e-20)
(0.226324 -0.0779195 0)
(0.206479 -0.096389 0)
(0.187612 -0.114456 1.04712e-19)
(0.169219 -0.132386 2.57743e-20)
(1.08256 0.162513 -5.67067e-20)
(0.730339 0.23173 6.7489e-20)
(0.481568 0.131736 0)
(0.379008 0.071555 9.79365e-20)
(0.328366 0.0333037 -7.43077e-20)
(0.293965 0.00498277 -1.56419e-19)
(0.265935 -0.0197465 -6.29803e-20)
(0.241632 -0.0422086 1.22561e-20)
(0.219449 -0.0637834 -1.65482e-20)
(0.198996 -0.0840686 1.24088e-20)
(0.17928 -0.103881 8.21405e-20)
(0.160313 -0.122837 1.99899e-20)
(1.0979 0.326312 -6.60427e-20)
(0.742697 0.347024 -1.28715e-19)
(0.484466 0.198883 0)
(0.376924 0.115353 1.0453e-19)
(0.322672 0.0661067 7.34208e-20)
(0.285982 0.0307953 2.4483e-20)
(0.256959 0.00150464 1.38572e-19)
(0.232094 -0.0247808 2.28975e-20)
(0.209867 -0.0488775 9.00713e-21)
(0.189188 -0.0713692 4.84641e-20)
(0.169444 -0.092445 -6.8874e-20)
(0.150003 -0.112558 -6.72801e-21)
(1.09178 0.462651 7.97788e-19)
(0.748776 0.479041 -9.04954e-20)
(0.478486 0.273743 2.55672e-19)
(0.366186 0.162805 -1.01885e-19)
(0.309225 0.0999571 0)
(0.271574 0.0568289 0)
(0.24272 0.0222656 -2.88228e-20)
(0.218578 -0.00767131 1.61956e-20)
(0.197142 -0.0343803 -1.12175e-20)
(0.177159 -0.0586241 -4.82931e-20)
(0.157872 -0.0808601 -7.55955e-20)
(0.138626 -0.101578 0)
(1.02915 0.672851 -1.74884e-19)
(0.722951 0.630413 -3.32471e-19)
(0.454537 0.355573 -3.29148e-19)
(0.342455 0.211621 0)
(0.285899 0.132981 -8.99307e-20)
(0.24994 0.0811221 0)
(0.223311 0.0411967 2.683e-20)
(0.20138 0.00785839 2.58297e-20)
(0.181816 -0.0210548 7.52233e-20)
(0.163333 -0.0466379 0)
(0.145126 -0.0696063 0)
(0.126573 -0.0905212 -2.46811e-19)
(0.725527 0.878659 1.43099e-18)
(0.590058 0.770233 -2.10262e-19)
(0.389434 0.428304 3.07668e-20)
(0.296767 0.254658 1.12451e-19)
(0.250171 0.161159 6.31794e-20)
(0.220935 0.101241 2.42522e-20)
(0.199392 0.0567703 -1.8794e-20)
(0.181331 0.0208176 -1.37532e-19)
(0.164684 -0.00959547 -5.5827e-20)
(0.148401 -0.0359447 -1.82454e-19)
(0.131801 -0.0591649 2.2451e-19)
(0.1144 -0.0798631 2.44488e-19)
(-0.0478704 0.909015 -4.67331e-19)
(0.250912 0.749789 5.08813e-20)
(0.256185 0.446997 5.66138e-20)
(0.223267 0.276266 -1.07412e-19)
(0.201707 0.177999 0)
(0.185802 0.114204 -2.12512e-20)
(0.172326 0.0675138 1.85634e-20)
(0.159557 0.0304206 2.48605e-20)
(0.146618 -0.000470829 -2.35672e-19)
(0.133017 -0.026902 1.80373e-19)
(0.118434 -0.0498597 -2.21983e-19)
(0.102537 -0.0699623 0)
(0.747738 -0.899207 -1.13469e-20)
(0.685968 -0.950534 -4.29585e-20)
(0.620551 -0.995891 -7.63832e-20)
(0.558804 -1.04251 2.59711e-19)
(0.492958 -1.08106 -3.26118e-19)
(0.429981 -1.11923 5.65466e-20)
(0.367148 -1.14988 -8.69173e-20)
(0.305743 -1.17794 -1.57615e-19)
(0.234507 -1.18262 -2.33608e-20)
(0.211574 -1.29222 0)
(0.247296 -1.28119 0)
(0.316578 -1.05941 -1.15621e-20)
(0.366464 -0.378075 -3.73006e-20)
(0.338289 -0.404028 7.21878e-20)
(0.309423 -0.429498 -4.16822e-20)
(0.281553 -0.454504 0)
(0.254729 -0.479237 1.34024e-19)
(0.230242 -0.504283 0)
(0.209213 -0.53104 8.61535e-20)
(0.195194 -0.563068 8.75485e-20)
(0.193126 -0.610432 -7.35262e-20)
(0.229717 -0.697522 0)
(0.342769 -0.833113 0)
(0.467724 -0.92387 -2.35111e-20)
(0.21894 -0.217897 3.09619e-20)
(0.200927 -0.235365 -1.83786e-20)
(0.183119 -0.252892 3.87187e-20)
(0.165977 -0.270515 0)
(0.149686 -0.28866 -5.18146e-20)
(0.134815 -0.307791 1.46239e-19)
(0.122009 -0.32916 -1.93382e-19)
(0.113168 -0.35516 -1.99121e-19)
(0.113182 -0.394347 1.34729e-19)
(0.136661 -0.475022 0)
(0.216399 -0.624433 1.28647e-20)
(0.359995 -0.814098 -1.77331e-20)
(0.176791 -0.173546 2.60302e-20)
(0.160556 -0.189718 -8.39065e-20)
(0.144437 -0.206211 1.15074e-19)
(0.128833 -0.222971 -1.15094e-19)
(0.113601 -0.24056 0)
(0.0992101 -0.259255 8.70851e-20)
(0.0856692 -0.280055 6.34674e-20)
(0.0743585 -0.304782 3.53998e-20)
(0.0683122 -0.340918 -8.55818e-20)
(0.0781061 -0.417129 0)
(0.129274 -0.576618 7.79688e-21)
(0.268136 -0.78675 1.03519e-19)
(0.161233 -0.158668 8.9747e-20)
(0.144247 -0.175614 -4.42901e-20)
(0.127492 -0.192649 0)
(0.110648 -0.210348 0)
(0.0940833 -0.228849 8.77083e-20)
(0.0774731 -0.248831 -8.26051e-20)
(0.0613991 -0.271012 -1.74882e-20)
(0.0458055 -0.297409 0)
(0.0322125 -0.334911 -5.511e-20)
(0.0248351 -0.41386 9.32192e-20)
(0.0361328 -0.588725 -1.35072e-19)
(0.115601 -0.850628 -1.51901e-19)
(0.151196 -0.150128 -1.87534e-19)
(0.133076 -0.167942 1.06169e-19)
(0.114857 -0.185934 3.03063e-19)
(0.0962264 -0.204535 2.21999e-20)
(0.0773044 -0.224137 -4.58238e-19)
(0.0579281 -0.245461 -2.16941e-19)
(0.0382728 -0.269397 -1.35111e-20)
(0.017666 -0.297791 0)
(-0.00483815 -0.337604 0)
(-0.0323444 -0.41825 -8.81054e-20)
(-0.0651675 -0.607783 -1.37322e-19)
(-0.0390918 -0.906432 1.611e-19)
(0.141207 -0.14167 1.20857e-19)
(0.122088 -0.160113 -2.6044e-19)
(0.102142 -0.178847 -1.50133e-19)
(0.0816421 -0.197928 5.64199e-21)
(0.0599946 -0.21824 2.18958e-19)
(0.0375671 -0.240263 2.40369e-19)
(0.0136498 -0.265363 1.38986e-19)
(-0.0124537 -0.295271 1.4532e-19)
(-0.0445347 -0.336187 -1.65202e-19)
(-0.0908775 -0.418233 0)
(-0.167888 -0.614895 2.04601e-19)
(-0.203577 -0.908897 -2.99953e-19)
(0.130447 -0.131879 0)
(0.110235 -0.150807 1.39574e-19)
(0.0890255 -0.169574 0)
(0.0664823 -0.188731 -1.77915e-20)
(0.0424383 -0.208849 -2.36623e-20)
(0.0165867 -0.230871 4.73354e-19)
(-0.0115343 -0.25594 -5.28977e-19)
(-0.0436744 -0.286283 0)
(-0.0847924 -0.328127 -1.82269e-19)
(-0.149995 -0.407983 1.17989e-19)
(-0.267862 -0.608553 -3.8328e-19)
(-0.342473 -0.896734 1.05467e-18)
(0.118892 -0.121137 1.43484e-19)
(0.0981163 -0.139894 -1.43491e-19)
(0.0758569 -0.158254 -1.81266e-19)
(0.0518129 -0.176671 2.03156e-19)
(0.0255721 -0.195876 2.35368e-19)
(-0.00323522 -0.216716 -7.27162e-19)
(-0.0356174 -0.240595 2.68959e-19)
(-0.0735858 -0.26981 0)
(-0.124004 -0.310024 1.77667e-19)
(-0.206754 -0.387009 0)
(-0.360423 -0.579844 3.96022e-19)
(-0.516024 -0.839572 -1.42374e-18)
(0.107132 -0.109841 0)
(0.0862125 -0.127975 -3.30708e-19)
(0.0634367 -0.145326 -1.9063e-19)
(0.0383834 -0.162395 -4.16273e-19)
(0.0106401 -0.1798 2.14611e-19)
(-0.0206027 -0.198385 2.46523e-19)
(-0.0565996 -0.219417 0)
(-0.100207 -0.245339 0)
(-0.159453 -0.281766 0)
(-0.259149 -0.348741 0)
(-0.45181 -0.523814 -1.02469e-19)
(-0.693206 -0.765078 3.1775e-20)
(0.0956659 -0.098523 1.57333e-19)
(0.0750609 -0.115611 1.70255e-19)
(0.0522636 -0.131511 7.41071e-19)
(0.0268713 -0.146703 1.94991e-19)
(-0.00162479 -0.161607 8.91403e-19)
(-0.0343256 -0.176873 -2.33346e-19)
(-0.0728537 -0.193434 -2.62639e-19)
(-0.12089 -0.21323 0)
(-0.187435 -0.240395 -3.39566e-19)
(-0.299737 -0.290186 -2.33424e-19)
(-0.519158 -0.409843 -2.34895e-19)
(-0.842405 -0.646008 -2.98563e-26)
(0.0848908 -0.0875877 0)
(0.0650006 -0.103287 0)
(0.0426582 -0.117458 -7.4361e-19)
(0.0176023 -0.130419 -6.14283e-19)
(-0.0108021 -0.142396 -2.28882e-19)
(-0.0436579 -0.153584 0)
(-0.0829974 -0.164256 2.59486e-19)
(-0.13277 -0.17507 0)
(-0.201993 -0.187997 1.68051e-20)
(-0.316244 -0.208216 2.14976e-19)
(-0.550072 -0.260692 8.94594e-20)
(-1.19373 -0.307901 5.22475e-19)
(-0.278392 -1.31257 2.59163e-19)
(-0.282063 -1.34008 -3.61176e-19)
(-0.332024 -1.25839 3.56601e-19)
(-0.405542 -1.20077 -1.14939e-19)
(-0.461489 -1.13705 0)
(-0.515172 -1.10171 4.82562e-20)
(-0.565303 -1.0522 0)
(-0.622687 -1.01127 6.5281e-20)
(-0.680138 -0.961295 -2.10391e-19)
(-0.7428 -0.913938 2.22766e-19)
(-0.797137 -0.855302 7.40464e-19)
(-0.853385 -0.800913 -1.5671e-19)
(-0.404845 -1.03234 4.43694e-20)
(-0.28741 -0.893722 -1.74814e-19)
(-0.219 -0.760607 1.00612e-19)
(-0.205341 -0.66048 2.61385e-20)
(-0.211127 -0.599505 -1.74241e-20)
(-0.222488 -0.556344 1.02828e-20)
(-0.238544 -0.521619 -5.49334e-21)
(-0.258432 -0.492194 -9.98056e-20)
(-0.281973 -0.464949 1.54152e-19)
(-0.307079 -0.438772 -5.35239e-20)
(-0.333293 -0.411656 1.18456e-20)
(-0.359383 -0.38427 2.80563e-20)
(-0.458858 -0.865551 -1.23599e-19)
(-0.220321 -0.681745 0)
(-0.13359 -0.515173 0)
(-0.112516 -0.423569 1.30144e-20)
(-0.113134 -0.376753 0)
(-0.120612 -0.346023 2.43238e-20)
(-0.131439 -0.321787 2.64447e-21)
(-0.144425 -0.300949 1.80873e-20)
(-0.159247 -0.281771 1.13907e-20)
(-0.175126 -0.263429 -4.46489e-20)
(-0.191786 -0.24523 -1.23419e-19)
(-0.20864 -0.227137 1.32423e-19)
(-0.363057 -0.861742 -3.48502e-20)
(-0.132661 -0.636359 -2.16644e-20)
(-0.0713016 -0.458408 -7.68981e-21)
(-0.0621706 -0.367774 -1.05144e-20)
(-0.0686763 -0.324343 0)
(-0.0796581 -0.296195 5.92451e-20)
(-0.0922776 -0.273597 -4.5297e-20)
(-0.105829 -0.253696 0)
(-0.120194 -0.235284 2.71419e-20)
(-0.135104 -0.217762 -4.20951e-20)
(-0.150418 -0.200717 6.85534e-20)
(-0.165882 -0.183973 1.3385e-20)
(-0.274448 -0.922758 4.66111e-20)
(-0.0386777 -0.662051 1.57008e-20)
(-0.0145935 -0.455668 -2.18267e-20)
(-0.0229481 -0.361882 0)
(-0.0376574 -0.317286 4.37844e-20)
(-0.0532709 -0.288048 -7.17751e-20)
(-0.0691389 -0.264235 0)
(-0.085038 -0.243124 9.79611e-21)
(-0.101218 -0.223552 -1.51113e-20)
(-0.117414 -0.205095 1.97135e-20)
(-0.13375 -0.18725 0)
(-0.149973 -0.169921 -7.77932e-20)
(-0.133286 -0.994278 -1.58618e-21)
(0.0621897 -0.690012 -3.06081e-20)
(0.0439843 -0.464829 2.76789e-20)
(0.0157115 -0.366666 1.52007e-19)
(-0.00820929 -0.319463 -8.14551e-21)
(-0.0292029 -0.2879 -8.87484e-20)
(-0.0487208 -0.262195 0)
(-0.0676454 -0.239433 -2.88959e-20)
(-0.0861322 -0.218572 -2.12308e-20)
(-0.104328 -0.19894 2.12258e-20)
(-0.122153 -0.180192 -9.52026e-21)
(-0.139729 -0.161917 -2.4796e-20)
(0.0148819 -1.05481 1.09924e-19)
(0.179805 -0.71698 5.48703e-21)
(0.108883 -0.473114 0)
(0.0576593 -0.370334 -1.58512e-19)
(0.0231823 -0.319859 1.83912e-19)
(-0.00388356 -0.285784 6.46524e-21)
(-0.0276478 -0.258291 1.13179e-19)
(-0.0499168 -0.234274 1.63823e-20)
(-0.0710314 -0.212516 2.79492e-21)
(-0.09134 -0.192169 -4.39787e-20)
(-0.110783 -0.172824 8.6996e-20)
(-0.129662 -0.153879 -7.99545e-20)
(0.176074 -1.11125 1.34739e-19)
(0.309005 -0.73834 7.48312e-20)
(0.180189 -0.476431 0)
(0.103298 -0.368502 -9.43807e-20)
(0.0565917 -0.314614 -5.37642e-20)
(0.0226495 -0.278431 -3.28913e-20)
(-0.00602207 -0.249809 -1.97116e-20)
(-0.0317779 -0.22538 -3.16416e-20)
(-0.0556911 -0.203428 -5.4472e-20)
(-0.0779314 -0.183123 -3.62297e-20)
(-0.0989428 -0.163659 -9.54389e-21)
(-0.118782 -0.144596 0)
(0.399368 -1.12724 -4.35516e-19)
(0.452013 -0.74636 0)
(0.258533 -0.47107 0)
(0.151918 -0.35821 9.2018e-20)
(0.0910483 -0.30164 -6.06922e-20)
(0.0490066 -0.264515 6.11527e-20)
(0.0151112 -0.236104 0)
(-0.0143206 -0.212361 1.60266e-20)
(-0.0407378 -0.191279 9.24365e-21)
(-0.0647705 -0.171728 5.26862e-20)
(-0.0869095 -0.152891 -8.76422e-20)
(-0.10745 -0.134145 2.23404e-19)
(0.606385 -1.06128 -1.27893e-18)
(0.610036 -0.719068 1.23811e-19)
(0.341975 -0.445757 1.56893e-19)
(0.20141 -0.334151 1.59595e-19)
(0.124386 -0.278604 0)
(0.0734759 -0.243338 -6.05664e-20)
(0.0342412 -0.217198 4.42421e-21)
(0.00143661 -0.19566 5.92451e-21)
(-0.0271062 -0.176509 7.02564e-20)
(-0.0524796 -0.158534 0)
(-0.0753439 -0.140943 -1.05546e-19)
(-0.096142 -0.123039 -2.21908e-19)
(0.852632 -0.768011 1.16173e-18)
(0.751428 -0.583355 -1.37335e-19)
(0.414368 -0.380117 -1.51039e-19)
(0.244228 -0.288741 -9.98751e-20)
(0.152514 -0.243239 -2.34825e-20)
(0.093582 -0.214803 8.22058e-22)
(0.0498559 -0.193776 -1.60506e-20)
(0.0144827 -0.176099 1.49769e-19)
(-0.0154914 -0.159901 -1.43079e-19)
(-0.0416243 -0.144202 -1.68192e-19)
(-0.0647322 -0.128378 1.90858e-19)
(-0.0853557 -0.111752 0)
(0.895997 0.0192754 -6.21486e-19)
(0.730964 -0.245798 3.00749e-21)
(0.432168 -0.248231 -6.29165e-20)
(0.265416 -0.215915 -4.64809e-20)
(0.169115 -0.195409 0)
(0.106439 -0.180261 -1.3276e-20)
(0.0605396 -0.167258 -7.44154e-20)
(0.0240865 -0.154847 -2.14799e-20)
(-0.00635467 -0.142344 -5.91847e-20)
(-0.0325429 -0.129408 1.66284e-19)
(-0.055412 -0.115691 1.06425e-19)
(-0.0754405 -0.100708 3.7784e-19)
(-0.904502 -0.739127 -1.51388e-19)
(-0.958432 -0.679662 2.44464e-19)
(-1.00228 -0.614154 -5.84573e-19)
(-1.045 -0.549917 1.81274e-18)
(-1.08175 -0.484019 -8.43602e-19)
(-1.11783 -0.421533 0)
(-1.14642 -0.359003 -3.9242e-19)
(-1.17472 -0.297408 3.19354e-19)
(-1.18363 -0.223168 0)
(-1.29677 -0.188967 2.23144e-20)
(-1.30934 -0.21092 0)
(-1.10331 -0.254085 2.4902e-20)
(-0.385593 -0.356294 -4.36007e-19)
(-0.41099 -0.328309 2.61863e-19)
(-0.435609 -0.299758 2.75197e-19)
(-0.45928 -0.271907 -1.15465e-19)
(-0.482581 -0.244647 0)
(-0.506144 -0.219852 0)
(-0.531407 -0.198622 1.45012e-19)
(-0.56244 -0.183884 -1.49935e-19)
(-0.609897 -0.179477 0)
(-0.699166 -0.20914 -1.73458e-22)
(-0.841199 -0.308224 -3.52187e-20)
(-0.941135 -0.423672 4.61159e-20)
(-0.22562 -0.208985 6.15371e-20)
(-0.24238 -0.190982 -1.36787e-19)
(-0.259059 -0.173166 0)
(-0.275633 -0.155951 -1.70156e-19)
(-0.292555 -0.139551 -1.91562e-19)
(-0.310306 -0.124565 3.92774e-19)
(-0.330164 -0.111603 -3.19205e-19)
(-0.35469 -0.102133 0)
(-0.392726 -0.100086 0)
(-0.473188 -0.118253 0)
(-0.629429 -0.186707 -3.31122e-21)
(-0.822277 -0.328742 2.75394e-20)
(-0.181439 -0.167409 -4.8591e-20)
(-0.196994 -0.151041 -5.76626e-21)
(-0.212634 -0.134902 0)
(-0.2285 -0.119157 -1.00908e-20)
(-0.244961 -0.103934 0)
(-0.262454 -0.0894579 0)
(-0.281899 -0.0759723 9.16213e-20)
(-0.305385 -0.0642095 -1.06114e-19)
(-0.340677 -0.0567404 1.27e-19)
(-0.417072 -0.061857 0)
(-0.581531 -0.101169 -6.85894e-20)
(-0.801609 -0.218949 -2.73499e-19)
(-0.166261 -0.152768 2.21149e-19)
(-0.182491 -0.135825 -5.42162e-20)
(-0.198951 -0.118889 1.56984e-19)
(-0.215752 -0.102107 9.93524e-20)
(-0.233382 -0.0854139 -2.74568e-19)
(-0.252248 -0.0690011 0)
(-0.273293 -0.0528836 -1.1802e-19)
(-0.298501 -0.0372574 0)
(-0.335347 -0.0225973 0)
(-0.414259 -0.0113928 1.03435e-19)
(-0.594332 -0.0126845 -2.41142e-20)
(-0.867183 -0.0849036 3.37032e-19)
(-0.157067 -0.143886 -1.30529e-19)
(-0.174381 -0.125804 -1.61671e-20)
(-0.191794 -0.107536 0)
(-0.209727 -0.0889561 0)
(-0.228556 -0.070069 -3.25372e-19)
(-0.248975 -0.0508351 2.13588e-19)
(-0.271889 -0.0312869 2.45298e-19)
(-0.299345 -0.0107668 1.40077e-19)
(-0.338246 0.0124226 -3.36011e-19)
(-0.419033 0.0419123 -9.76937e-20)
(-0.612299 0.0815964 0)
(-0.919373 0.0644233 6.81618e-19)
(-0.147997 -0.135082 -2.52588e-19)
(-0.166136 -0.115902 1.22698e-19)
(-0.184265 -0.0962094 1.79741e-19)
(-0.202849 -0.0756838 1.60867e-20)
(-0.222434 -0.0542851 -1.09321e-20)
(-0.24379 -0.0318886 -2.45203e-19)
(-0.268002 -0.00824868 -4.00043e-19)
(-0.296999 0.0178078 -1.53107e-19)
(-0.337542 0.0496625 1.69327e-19)
(-0.419392 0.0970292 0)
(-0.618672 0.17655 3.89275e-19)
(-0.918373 0.214886 -4.45744e-19)
(-0.137874 -0.125276 2.59962e-19)
(-0.156358 -0.105353 -1.45076e-19)
(-0.174719 -0.0843359 -1.78126e-19)
(-0.193301 -0.0620329 -4.08204e-19)
(-0.212877 -0.0381349 4.32773e-19)
(-0.234233 -0.0124908 -1.82502e-20)
(-0.258676 0.0154705 8.16496e-19)
(-0.288527 0.0471692 1.5194e-19)
(-0.329736 0.0880298 1.90504e-19)
(-0.409974 0.152973 0)
(-0.612428 0.271086 -2.39015e-19)
(-0.900852 0.348877 -7.31311e-19)
(-0.126762 -0.114833 0)
(-0.145181 -0.0944557 1.53139e-19)
(-0.163102 -0.0725494 1.77551e-19)
(-0.181047 -0.0487427 -2.17012e-19)
(-0.199677 -0.0227543 -1.34652e-20)
(-0.220013 0.00593264 -2.55577e-19)
(-0.243388 0.0379847 -2.79379e-19)
(-0.27213 0.0756541 0)
(-0.312355 0.125567 -1.85581e-19)
(-0.389062 0.208 -1.28601e-19)
(-0.58331 0.362316 6.86711e-19)
(-0.845714 0.515161 -7.16998e-19)
(-0.115246 -0.104161 0)
(-0.133065 -0.0837719 0)
(-0.15002 -0.0613743 0)
(-0.166609 -0.0366305 -6.32971e-19)
(-0.1835 -0.00905109 4.34885e-19)
(-0.201591 0.02199 4.96169e-19)
(-0.22226 0.0577497 0)
(-0.247956 0.101017 -3.14307e-19)
(-0.283858 0.159917 0)
(-0.350525 0.259351 -2.62433e-19)
(-0.526683 0.452067 -1.09087e-19)
(-0.766223 0.686125 -7.05709e-19)
(-0.103826 -0.0937285 0)
(-0.120608 -0.0737068 0)
(-0.136135 -0.0513039 3.7183e-19)
(-0.150828 -0.0261971 6.27452e-19)
(-0.165258 0.00218345 9.09909e-21)
(-0.180074 0.0346659 2.48876e-19)
(-0.196326 0.0730389 -1.45359e-19)
(-0.215806 0.120799 4.57021e-19)
(-0.242862 0.18713 3.57508e-19)
(-0.291417 0.299111 2.46419e-19)
(-0.409638 0.519369 -2.48042e-19)
(-0.64454 0.841698 -5.54727e-19)
(-0.0928915 -0.0838916 0)
(-0.108289 -0.0646005 0)
(-0.122064 -0.0426549 -3.67488e-19)
(-0.134552 -0.0177838 1.93584e-19)
(-0.146053 0.0105054 -2.3491e-19)
(-0.156837 0.0432581 -2.46009e-19)
(-0.167223 0.0824524 2.63177e-19)
(-0.177861 0.132043 0)
(-0.190128 0.201209 -3.46282e-19)
(-0.209253 0.315569 -2.17728e-19)
(-0.259915 0.548478 3.10763e-19)
(-0.302618 1.1878 -5.27602e-19)
(-1.31768 0.275605 -3.71044e-22)
(-1.34243 0.27874 0)
(-1.26181 0.329851 0)
(-1.20026 0.403333 -8.12929e-19)
(-1.13393 0.457772 1.13778e-18)
(-1.09546 0.508545 0)
(-1.04484 0.558228 0)
(-1.0023 0.615618 3.05976e-19)
(-0.950837 0.671003 3.36151e-19)
(-0.901004 0.728875 9.82753e-19)
(-0.842743 0.781564 1.70108e-18)
(-0.787925 0.83751 -2.56107e-19)
(-1.03378 0.401018 -2.70345e-19)
(-0.893228 0.28379 0)
(-0.759644 0.215807 0)
(-0.658981 0.202383 -7.13885e-20)
(-0.597145 0.208013 1.13245e-19)
(-0.552856 0.218952 -3.8648e-19)
(-0.517162 0.234151 2.54754e-19)
(-0.486668 0.25301 5.78045e-20)
(-0.458428 0.275084 -1.43847e-19)
(-0.431557 0.298736 5.9745e-21)
(-0.404603 0.323776 0)
(-0.377948 0.349301 -3.61896e-19)
(-0.866906 0.456097 1.96851e-19)
(-0.681661 0.217485 0)
(-0.514398 0.131204 0)
(-0.422458 0.110361 1.70266e-20)
(-0.375228 0.110885 -1.42882e-20)
(-0.343961 0.118027 -2.59901e-20)
(-0.319138 0.12828 0)
(-0.297724 0.140513 -1.7746e-19)
(-0.278167 0.154429 1.76834e-19)
(-0.259734 0.169427 -7.58814e-20)
(-0.241795 0.185307 -1.77482e-19)
(-0.224215 0.20159 2.69382e-19)
(-0.863353 0.359975 -6.49024e-20)
(-0.636163 0.131242 6.81507e-20)
(-0.458185 0.0698236 0)
(-0.367191 0.0606255 1.71514e-20)
(-0.323387 0.0670117 -8.96161e-21)
(-0.29484 0.0775425 2.0478e-20)
(-0.27176 0.0897011 0)
(-0.251511 0.102532 -3.12699e-20)
(-0.232858 0.11623 -1.47359e-19)
(-0.215414 0.130367 9.98598e-20)
(-0.198592 0.145114 1.42123e-19)
(-0.182368 0.160049 -2.97257e-19)
(-0.921987 0.276037 8.55737e-20)
(-0.660713 0.0389566 -6.45093e-20)
(-0.455496 0.0136792 8.75408e-21)
(-0.361419 0.0219856 0)
(-0.31664 0.0363375 1.59414e-20)
(-0.286914 0.0517577 -3.59986e-21)
(-0.262732 0.0669725 1.28767e-20)
(-0.241211 0.0823977 2.9673e-20)
(-0.221557 0.0977625 0)
(-0.203054 0.113427 0)
(-0.185544 0.129061 0)
(-0.168495 0.144962 -5.00999e-21)
(-0.992846 0.132114 -3.11776e-20)
(-0.688549 -0.0632875 0)
(-0.464588 -0.045236 -8.35637e-21)
(-0.366447 -0.0167117 -3.54311e-20)
(-0.318809 0.00719396 -2.37221e-20)
(-0.286836 0.0279868 -1.65232e-20)
(-0.260723 0.0470854 -6.14256e-21)
(-0.237647 0.065473 -1.16047e-19)
(-0.216643 0.0833191 -2.72332e-20)