/*--------------------------------*- C++ -*----------------------------------*\
  =========                 |
  \\      /  F ield         | OpenFOAM: The Open Source CFD Toolbox
   \\    /   O peration     | Website:  https://openfoam.org
    \\  /    A nd           | Version:  6
     \\/     M anipulation  |
\*---------------------------------------------------------------------------*/
FoamFile
{
    version     2.0;
    format      ascii;
    class       volScalarField;
    location    "1000";
    object      epsilon;
}
// * * * * * * * * * * * * * * * * * * * * * * * * * * * * * * * * * * * * * //

dimensions      [0 2 -3 0 0 0 0];

internalField   nonuniform List<scalar> 
3072
(
493.513
288.592
293.096
294.156
294.424
294.482
294.517
294.522
294.531
294.532
294.549
294.545
448.544
134.451
81.6928
65.3807
60.0527
58.1659
57.4059
57.0128
56.8153
56.6891
56.6458
56.6223
405.817
108.813
48.6886
31.8496
27.0138
25.6144
25.2195
25.1198
25.0953
25.0707
25.0633
25.0814
370.2
100.034
41.6971
26.1489
21.958
20.8379
20.5511
20.4777
20.459
20.4541
20.456
20.4611
340.344
92.7981
38.4444
24.5087
20.8918
19.9715
19.7459
19.6925
19.6794
19.6777
19.6793
19.6808
315.216
86.4927
36.0851
23.6241
20.5065
19.7469
19.5681
19.5267
19.5184
19.515
19.5154
19.5191
293.751
81.0727
34.17
22.9534
20.2729
19.6414
19.4963
19.4676
19.4598
19.4577
19.4625
19.4657
275.251
76.2498
32.5318
22.4386
20.102
19.5702
19.4518
19.427
19.4217
19.4179
19.4233
19.4275
259.045
72.321
31.2961
22.0335
19.9672
19.5082
19.4109
19.3889
19.3839
19.3843
19.387
19.3923
244.828
69.8183
30.4158
21.7687
19.8718
19.4617
19.3739
19.3625
19.3666
19.3573
19.355
19.3576
232.243
68.9958
29.7664
21.5428
19.786
19.4258
19.3458
19.3374
19.3439
19.3321
19.3268
19.3287
224.497
63.8856
27.9694
21.0729
19.6677
19.3808
19.3153
19.3058
19.3154
19.3123
19.3065
19.3067
294.552
294.544
294.55
294.54
294.552
294.526
294.515
294.512
294.498
294.454
289.186
489.913
56.6381
56.6578
56.6788
56.7255
56.7502
56.7638
56.7358
57.128
60.7038
78.8284
140.46
447.125
25.0993
25.1116
25.1202
25.1358
25.1337
25.1189
25.1149
25.5643
28.7207
44.6609
103.083
405.126
20.4651
20.4691
20.4727
20.4779
20.4789
20.4792
20.4797
20.8153
23.2774
37.0266
90.2623
369.702
19.6794
19.6787
19.6795
19.6824
19.6854
19.6868
19.6872
19.9322
21.9509
33.7702
81.831
340.259
19.5214
19.5174
19.5164
19.5187
19.519
19.5185
19.5214
19.7112
21.3291
31.5695
75.3307
315.177
19.4652
19.4642
19.4627
19.4616
19.4587
19.4608
19.4625
19.6065
20.9243
29.7236
69.6517
293.898
19.4256
19.4215
19.4243
19.4265
19.4257
19.4256
19.4273
19.5394
20.613
28.2832
65.2342
275.825
19.3948
19.3904
19.3932
19.3963
19.3948
19.4
19.4015
19.4744
20.3805
26.9785
60.7843
259.86
19.361
19.3577
19.3588
19.3646
19.362
19.3666
19.3691
19.4261
20.1681
25.8838
56.811
245.588
19.3251
19.3234
19.3307
19.3287
19.329
19.3365
19.3459
19.3942
19.988
24.8302
52.8311
233.4
19.2993
19.2906
19.2926
19.2942
19.2995
19.3123
19.3145
19.3465
19.7897
23.5957
48.0113
225.229
491.55
288.322
293.058
294.151
294.441
294.475
294.508
294.495
294.526
294.548
294.588
294.545
448.395
131.221
80.1478
64.5597
59.5158
57.722
57.0043
56.6744
56.5704
56.5364
56.5123
56.5341
405.796
107.799
48.3784
31.7142
26.9433
25.5742
25.1897
25.0936
25.061
25.0396
25.0484
25.0759
370.31
99.3578
41.5271
26.1197
21.9429
20.8315
20.5462
20.4757
20.4557
20.4505
20.4536
20.4612
340.601
92.259
38.3414
24.482
20.8856
19.9672
19.7442
19.6932
19.6829
19.6795
19.6802
19.6808
315.451
86.1226
36.03
23.6118
20.5046
19.7462
19.566
19.5306
19.5236
19.5237
19.5239
19.5254
294.456
80.7664
34.1368
22.949
20.2735
19.64
19.4979
19.4644
19.4593
19.4583
19.4595
19.4632
276.218
75.956
32.5103
22.4423
20.1033
19.5667
19.4505
19.4253
19.4225
19.4228
19.4223
19.4274
260.38
72.0962
31.2306
22.0497
19.9727
19.5117
19.4139
19.399
19.3943
19.3902
19.3943
19.3978
246.291
69.4982
30.3981
21.7677
19.8716
19.4635
19.3752
19.3556
19.3526
19.3557
19.3625
19.3626
233.363
68.7969
29.8614
21.5252
19.7784
19.4196
19.3469
19.3332
19.3352
19.339
19.3291
19.3205
226.309
63.8707
28.0594
21.0502
19.6574
19.3728
19.3152
19.3061
19.3059
19.3074
19.3034
19.3058
294.531
294.542
294.554
294.542
294.565
294.549
294.53
294.505
294.501
294.454
289.192
489.917
56.5543
56.6024
56.6386
56.6895
56.7132
56.731
56.7187
57.1151
60.6965
79.0432
141.781
447.128
25.0898
25.1056
25.1177
25.1266
25.1193
25.1252
25.1471
25.5946
28.7345
44.6967
103.247
405.125
20.4655
20.4697
20.4731
20.4767
20.4781
20.4783
20.4806
20.8177
23.2767
37.0291
90.2413
369.644
19.682
19.6825
19.6841
19.6853
19.6871
19.6868
19.6896
19.9365
21.9267
33.7553
81.6644
339.969
19.5233
19.5239
19.5218
19.5231
19.5187
19.5216
19.5199
19.7061
21.3539
31.5557
75.2082
315.024
19.4655
19.4657
19.4632
19.46
19.4607
19.462
19.4665
19.6004
20.9524
29.7751
69.4165
293.89
19.4275
19.4241
19.4254
19.4238
19.4237
19.4263
19.4263
19.5366
20.6192
28.2461
65.2827
275.729
19.3896
19.3868
19.3897
19.3943
19.3986
19.3971
19.3978
19.4753
20.374
26.9972
60.7087
259.317
19.3589
19.3554
19.3578
19.363
19.3638
19.3687
19.3725
19.4365
20.1479
25.7744
56.9616
245.377
19.3242
19.3232
19.3222
19.3324
19.3391
19.3378
19.3465
19.4022
19.9743
24.7904
52.7956
232.592
19.3072
19.3003
19.2988
19.3104
19.3177
19.3091
19.3157
19.3649
19.7812
23.545
47.8425
222.945
493.518
288.599
293.099
294.153
294.419
294.472
294.504
294.514
294.528
294.51
294.544
294.539
448.556
134.46
81.7234
65.4088
60.0855
58.1847
57.4184
57.0272
56.8107
56.682
56.6497
56.6293
405.874
108.812
48.7304
31.8692
27.0266
25.6233
25.2224
25.107
25.07
25.0698
25.0878
25.0841
370.211
100.047
41.7486
26.1747
21.9605
20.8386
20.5522
20.4789
20.4614
20.4614
20.4627
20.4638
340.664
92.8807
38.5481
24.5221
20.8956
19.971
19.7458
19.6934
19.6824
19.6821
19.6803
19.6797
315.491
86.5817
36.2122
23.6411
20.5111
19.7471
19.5702
19.5307
19.5256
19.5243
19.5206
19.5208
294.334
81.1669
34.2921
22.9878
20.2807
19.645
19.4985
19.4734
19.4716
19.47
19.4624
19.4613
275.579
76.3411
32.6978
22.4718
20.1084
19.5728
19.4527
19.4334
19.435
19.4303
19.4242
19.4204
259.316
72.4042
31.4411
22.0769
19.9706
19.5114
19.4117
19.3985
19.402
19.3925
19.3897
19.3888
246.048
69.955
30.5565
21.7742
19.8664
19.4616
19.3731
19.3626
19.3685
19.3628
19.3544
19.3557
233.312
69.0269
29.8408
21.51
19.7798
19.4173
19.3389
19.3306
19.3351
19.3379
19.3402
19.3369
226.297
63.8127
27.9515
21.0623
19.655
19.3685
19.3069
19.3039
19.3152
19.3147
19.3069
19.3081
294.552
294.536
294.522
294.535
294.552
294.534
294.523
294.51
294.507
294.454
289.189
489.914
56.6403
56.6612
56.6863
56.7281
56.7486
56.7648
56.7375
57.1274
60.7022
78.8433
140.578
447.122
25.0904
25.1173
25.1352
25.1324
25.1344
25.1446
25.1324
25.5671
28.7168
44.6479
103.107
405.114
20.4664
20.4719
20.4753
20.4742
20.4755
20.4814
20.4826
20.8143
23.2736
36.9846
90.3072
369.625
19.6808
19.6809
19.681
19.6831
19.6834
19.6845
19.6884
19.9335
21.9202
33.7615
81.8426
339.947
19.5218
19.5174
19.5151
19.5162
19.5176
19.5197
19.5246
19.701
21.3451
31.5192
75.3772
314.977
19.465
19.4653
19.462
19.4602
19.4596
19.4661
19.4672
19.6048
20.9284
29.7714
69.7134
293.777
19.4212
19.4258
19.4221
19.4203
19.4225
19.4286
19.4351
19.5384
20.6117
28.2709
65.2178
275.316
19.3861
19.3922
19.3894
19.3843
19.3854
19.3939
19.4021
19.4825
20.3551
26.9792
60.8098
259.4
19.3569
19.3605
19.3639
19.3621
19.3614
19.3639
19.3704
19.4354
20.1406
25.7367
56.9168
245.073
19.3299
19.3325
19.3294
19.3293
19.3327
19.3383
19.3405
19.3904
19.9705
24.6885
52.9359
232.489
19.303
19.3
19.3019
19.3083
19.3122
19.3077
19.3064
19.3468
19.7904
23.5515
47.9457
223.534
493.593
288.613
293.106
294.16
294.43
294.496
294.537
294.545
294.544
294.542
294.554
294.549
448.655
134.435
81.6544
65.3283
59.9996
58.1119
57.3438
56.9493
56.7469
56.6289
56.5878
56.5918
405.837
108.85
48.7265
31.8561
27.0197
25.6119
25.2112
25.1001
25.0785
25.0854
25.0949
25.1049
370.228
100.023
41.7375
26.1677
21.9584
20.8392
20.5511
20.478
20.4611
20.4629
20.465
20.4681
340.527
92.8421
38.5145
24.5227
20.8963
19.9714
19.7473
19.6935
19.6821
19.6802
19.6817
19.6824
315.564
86.6254
36.2083
23.6425
20.5131
19.7486
19.5693
19.5344
19.5276
19.5265
19.5257
19.5264
294.049
81.1615
34.2979
22.9933
20.2803
19.6436
19.4999
19.4731
19.4692
19.4691
19.4715
19.4666
275.31
76.2694
32.7002
22.4687
20.1083
19.5702
19.4524
19.4305
19.4277
19.4303
19.433
19.4325
259.17
72.4521
31.4524
22.079
19.9736
19.5158
19.4164
19.3928
19.3883
19.3918
19.3901
19.3903
245.447
69.9359
30.5947
21.784
19.8709
19.4681
19.3796
19.3607
19.3568
19.3557
19.3617
19.3668
233.508
69.2005
29.9426
21.5287
19.786
19.425
19.35
19.3385
19.339
19.3321
19.324
19.3283
225.341
63.9849
28.0489
21.0527
19.6596
19.3782
19.3141
19.3064
19.3084
19.3114
19.3149
19.3107
294.554
294.548
294.551
294.54
294.534
294.52
294.522
294.503
294.5
294.453
289.187
489.915
56.6036
56.6437
56.6741
56.7163
56.739
56.7557
56.7376
57.1286
60.6962
78.9385
141.24
447.118
25.1142
25.122
25.1111
25.1014
25.1159
25.1407
25.1497
25.5835
28.6813
44.6367
103.159
405.046
20.4711
20.4739
20.4717
20.4715
20.4764
20.4805
20.4839
20.8167
23.2736
37.0024
90.2544
369.498
19.6833
19.6835
19.6845
19.6846
19.6854
19.6847
19.6892
19.9375
21.9236
33.7695
81.7105
339.955
19.5236
19.5228
19.5225
19.5262
19.5238
19.525
19.5241
19.7038
21.3475
31.481
75.2504
314.959
19.464
19.4595
19.457
19.4573
19.4603
19.4609
19.4656
19.6055
20.9282
29.7471
69.4179
293.419
19.4301
19.4221
19.4201
19.4213
19.4193
19.4228
19.4301
19.529
20.6348
28.246
65.2459
274.93
19.3897
19.3838
19.3836
19.3825
19.3845
19.3924
19.3989
19.4723
20.3817
27.0065
60.6875
258.763
19.3649
19.358
19.3582
19.3554
19.3565
19.3616
19.3639
19.4268
20.1703
25.8831
56.8856
244.861
19.3344
19.3321
19.3349
19.3371
19.3345
19.3364
19.3437
19.395
19.9776
24.7487
52.9395
232.444
19.3005
19.302
19.3121
19.3126
19.3111
19.3191
19.3229
19.3609
19.7836
23.5647
47.9305
223.485
61.8593
34.7283
23.324
20.2123
19.4892
19.3263
19.2841
19.2715
19.2804
19.2792
19.2822
19.2773
30.2385
24.043
20.7608
19.6461
19.3542
19.2799
19.2631
19.2599
19.2652
19.2551
19.2517
19.2549
22.0824
20.6511
19.736
19.3733
19.2754
19.2609
19.2528
19.25
19.2496
19.2305
19.2296
19.241
19.9685
19.6308
19.3701
19.2582
19.2226
19.2262
19.2298
19.2213
19.2245
19.2128
19.213
19.2201
19.275
19.2832
19.2812
19.2751
19.2821
19.283
19.2847
19.3142
19.5224
21.2523
31.8717
89.9387
19.2577
19.2629
19.266
19.2592
19.2491
19.2561
19.2672
19.2836
19.3636
19.9782
23.3112
35.3649
19.2302
19.2243
19.2404
19.2427
19.2347
19.2344
19.2526
19.2502
19.2759
19.4658
20.3892
22.9871
19.2037
19.1931
19.2075
19.2162
19.2126
19.21
19.2278
19.2265
19.2322
19.2905
19.5282
20.1168
61.9977
35.0174
23.3246
20.2012
19.4836
19.3216
19.279
19.2758
19.2774
19.2719
19.2786
19.2856
30.3513
24.0861
20.7582
19.6456
19.3503
19.2719
19.2471
19.2434
19.2521
19.2619
19.2573
19.2574
22.1262
20.6546
19.7358
19.3799
19.2674
19.2343
19.2319
19.237
19.2447
19.2463
19.2465
19.2352
19.9734
19.6226
19.3701
19.2651
19.2212
19.2022
19.1972
19.2063
19.2126
19.211
19.2205
19.211
19.2815
19.2721
19.2765
19.2845
19.2805
19.2784
19.2912
19.3242
19.5256
21.246
31.704
88.6589
19.2605
19.2531
19.2587
19.2655
19.2645
19.2701
19.2774
19.287
19.3667
19.9738
23.2512
34.8429
19.2301
19.2284
19.2212
19.2334
19.2432
19.2409
19.2498
19.2604
19.2915
19.4784
20.3805
22.8537
19.2045
19.2019
19.1921
19.1947
19.2057
19.2119
19.2106
19.2273
19.247
19.2988
19.5289
20.0857
61.7741
34.8449
23.3425
20.2137
19.4838
19.3174
19.2843
19.2804
19.2878
19.289
19.2795
19.2813
30.0984
24.0415
20.7608
19.654
19.3483
19.2717
19.2562
19.253
19.2591
19.2622
19.2577
19.2638
22.0217
20.6415
19.7358
19.3879
19.2757
19.2456
19.2278
19.2356
19.2511
19.2469
19.2407
19.2475
19.9479
19.6225
19.3733
19.2703
19.2273
19.2208
19.211
19.2111
19.2273
19.2259
19.2187
19.2238
19.286
19.2819
19.2803
19.2863
19.2851
19.2813
19.2826
19.3033
19.529
21.2463
31.7633
88.8576
19.2638
19.2593
19.2571
19.2658
19.2677
19.2657
19.2766
19.2788
19.3661
19.9721
23.3249
34.8278
19.2481
19.2398
19.2325
19.2413
19.2462
19.2406
19.2504
19.259
19.2904
19.4781
20.3924
22.8822
19.2138
19.1967
19.1945
19.2032
19.2103
19.2135
19.2285
19.2233
19.2356
19.2943
19.5295
20.099
61.819
35.0185
23.3241
20.2131
19.4796
19.3237
19.2837
19.281
19.2851
19.2857
19.2836
19.2786
30.0679
24.0896
20.7656
19.6429
19.3426
19.2763
19.2645
19.2644
19.2702
19.2573
19.2417
19.2402
22.0401
20.644
19.7344
19.3724
19.2689
19.2455
19.2392
19.2368
19.243
19.2372
19.2301
19.241
19.9545
19.6216
19.3687
19.2584
19.236
19.2212
19.2116
19.2155
19.2139
19.22
19.2176
19.2214
19.2738
19.2789
19.2859
19.2801
19.2787
19.2907
19.292
19.3133
19.5269
21.2582
31.7009
89.0502
19.2384
19.2394
19.2511
19.2526
19.2502
19.2585
19.2711
19.2741
19.3609
19.9721
23.2249
34.9629
19.2394
19.2325
19.2374
19.2393
19.2348
19.2463
19.2445
19.2364
19.2739
19.4682
20.3684
22.9161
19.2275
19.2107
19.1967
19.2065
19.2122
19.2242
19.2285
19.2328
19.2308
19.2848
19.5188
20.1029
19.4005
19.3029
19.2324
19.2005
19.1891
19.1873
19.1864
19.1851
19.1858
19.1818
19.1808
19.3382
19.239
19.2001
19.1775
19.1685
19.1656
19.1632
19.1622
19.1624
19.1625
19.1611
19.3802
20.5378
19.1836
19.1592
19.1503
19.1469
19.1463
19.1443
19.1437
19.1436
19.1436
19.2482
20.5085
26.7801
19.1566
19.1358
19.132
19.1292
19.1289
19.1275
19.1272
19.1274
19.1479
19.584
24.4453
49.8305
19.3789
19.224
19.1861
19.1816
19.1815
19.1821
19.1873
19.1879
19.1906
19.2089
19.2765
19.414
20.6491
19.524
19.215
19.1662
19.1607
19.1607
19.1624
19.1633
19.1644
19.1713
19.189
19.224
27.3964
20.9282
19.3978
19.172
19.1447
19.1422
19.1434
19.1441
19.1442
19.1467
19.1517
19.1636
51.7352
24.6594
19.8388
19.2048
19.1338
19.1267
19.1276
19.1281
19.128
19.1293
19.13
19.1357
19.4006
19.3006
19.233
19.2024
19.1886
19.1805
19.1784
19.18
19.1818
19.1824
19.1829
19.3376
19.2382
19.1992
19.1777
19.1685
19.1648
19.1611
19.1602
19.1595
19.1603
19.1604
19.3795
20.5428
19.1825
19.1578
19.1491
19.1463
19.1453
19.1428
19.1423
19.1419
19.1422
19.2472
20.5082
26.8227
19.1566
19.1342
19.1289
19.1287
19.1285
19.1263
19.1263
19.1267
19.1471
19.5829
24.4489
49.9928
19.3794
19.2247
19.1832
19.1781
19.1796
19.1817
19.1825
19.1885
19.195
19.2135
19.2767
19.4087
20.6463
19.5245
19.2155
19.1665
19.1608
19.1604
19.1602
19.1627
19.1669
19.1724
19.1904
19.2234
27.3322
20.9237
19.3983
19.1723
19.1454
19.143
19.1424
19.143
19.1456
19.1478
19.1533
19.1642
51.2532
24.6547
19.8388
19.2044
19.1338
19.1273
19.1271
19.1274
19.1286
19.1293
19.1314
19.1368
19.3958
19.3011
19.2348
19.2048
19.1908
19.1876
19.1833
19.1818
19.1852
19.1841
19.1827
19.3399
19.2395
19.2001
19.1806
19.1707
19.1653
19.1641
19.1617
19.1611
19.1617
19.1611
19.3786
20.5392
19.1849
19.16
19.153
19.1491
19.1459
19.1447
19.1436
19.1434
19.1436
19.2478
20.5082
26.7695
19.1583
19.1365
19.1327
19.1306
19.1291
19.1283
19.1275
19.1274
19.1479
19.5839
24.4473
49.8417
19.3818
19.2233
19.183
19.1785
19.1805
19.1849
19.1891
19.1857
19.1907
19.2104
19.2795
19.4129
20.6475
19.5229
19.2145
19.1663
19.1605
19.1615
19.1624
19.1625
19.1645
19.1717
19.1911
19.2239
27.3916
20.9242
19.397
19.1723
19.1449
19.143
19.1428
19.1442
19.1449
19.147
19.1531
19.1637
51.7131
24.6591
19.8373
19.2047
19.1338
19.1267
19.1267
19.1272
19.1279
19.1284
19.1306
19.136
19.3979
19.3017
19.2315
19.1997
19.1897
19.1847
19.1812
19.1817
19.1824
19.1831
19.1819
19.341
19.2387
19.1992
19.1775
19.1679
19.1629
19.1613
19.1599
19.1597
19.1604
19.1604
19.3797
20.5429
19.1835
19.1581
19.1496
19.1469
19.144
19.1427
19.142
19.1423
19.1425
19.2463
20.5102
26.8067
19.1573
19.1347
19.1301
19.1293
19.1276
19.1262
19.126
19.1264
19.1466
19.5825
24.4425
49.9597
19.3851
19.2277
19.1837
19.1794
19.1805
19.1842
19.1858
19.1897
19.1914
19.2073
19.2741
19.4121
20.6461
19.5256
19.2155
19.1657
19.1598
19.1607
19.1612
19.1631
19.1661
19.1707
19.1901
19.2244
27.3114
20.9255
19.3981
19.1719
19.1446
19.1425
19.1427
19.1441
19.1464
19.1482
19.1534
19.1633
51.1893
24.651
19.8381
19.2043
19.1336
19.1268
19.1268
19.1271
19.1292
19.1299
19.1313
19.1362
19.1387
19.1184
19.1158
19.1138
19.1139
19.1134
19.1125
19.114
19.1704
20.1947
32.0475
155.652
19.1231
19.1034
19.1006
19.0998
19.1002
19.1003
19.0991
19.1013
19.1693
20.3648
33.3501
148.749
19.1098
19.0905
19.0875
19.0872
19.0877
19.0879
19.0869
19.0893
19.1538
20.3068
32.7957
143.801
19.0975
19.0783
19.0756
19.0759
19.0764
19.076
19.0756
19.0775
19.1343
20.1827
31.8725
139.471
19.0861
19.0671
19.065
19.0654
19.0659
19.0652
19.0651
19.0665
19.1149
20.0525
30.9476
135.459
19.0752
19.0569
19.0551
19.0554
19.0559
19.0551
19.0552
19.0563
19.0974
19.933
30.0861
131.685
19.0656
19.0478
19.0459
19.0463
19.0469
19.0462
19.0463
19.047
19.0819
19.8267
29.3016
128.124
19.5599
19.615
19.621
19.6225
19.6227
19.6224
19.622
19.6219
19.6514
20.332
29.2273
124.762
22.4942
22.606
22.6194
22.6273
22.627
22.6281
22.6268
22.6239
22.6523
23.3103
31.5925
121.563
34.6107
34.9189
34.9612
34.9881
34.9809
34.9868
34.9734
34.9588
34.9689
35.4577
42.1554
118.461
72.372
72.6821
72.7107
72.8092
72.7718
72.7868
72.7319
72.6661
72.6424
72.7547
75.5047
110.756
248.993
248.374
248.351
248.285
248.273
248.261
248.224
248.204
248.208
248.184
247.548
240.909
155.671
31.6712
20.4358
19.2455
19.1239
19.1127
19.1123
19.1127
19.1124
19.113
19.1135
19.1177
148.87
32.9689
20.5951
19.2503
19.1121
19.0995
19.0986
19.0994
19.099
19.0994
19.099
19.1028
143.92
32.5164
20.5282
19.231
19.0992
19.087
19.0866
19.0874
19.087
19.0865
19.0862
19.0895
139.566
31.6885
20.3916
19.2034
19.0861
19.0759
19.0758
19.076
19.0755
19.0751
19.0746
19.0778
135.538
30.8268
20.2483
19.1756
19.0735
19.0654
19.0651
19.0648
19.0645
19.0637
19.0637
19.0669
131.75
30.0113
20.1136
19.1498
19.062
19.0556
19.055
19.0548
19.0544
19.0542
19.0539
19.057
128.184
29.2552
19.9928
19.1268
19.0513
19.0463
19.0454
19.0459
19.045
19.0457
19.0452
19.0475
124.817
29.1131
20.4753
19.6882
19.6213
19.6163
19.615
19.6156
19.6148
19.6152
19.6151
19.6182
121.627
31.4266
23.4151
22.6739
22.608
22.6028
22.5969
22.6
22.5943
22.6013
22.5997
22.5872
118.575
41.8563
35.4965
34.9239
34.8655
34.8516
34.8366
34.8402
34.8318
34.8482
34.8536
34.848
111.265
75.3058
72.6558
72.4055
72.36
72.3468
72.3097
72.3278
72.2957
72.3821
72.3923
72.3862
241.626
247.606
248.158
248.204
248.228
248.25
248.255
248.265
248.327
248.32
248.345
248.468
19.1378
19.1172
19.1137
19.1133
19.113
19.1118
19.1119
19.1136
19.1697
20.1925
32.0378
155.687
19.1225
19.1028
19.0998
19.0998
19.0997
19.0991
19.0989
19.1015
19.1689
20.3623
33.3342
148.815
19.1089
19.0899
19.0879
19.0872
19.0875
19.087
19.0863
19.0888
19.1532
20.3043
32.7761
143.83
19.0964
19.0782
19.0767
19.076
19.0761
19.0755
19.075
19.0773
19.1339
20.1807
31.8519
139.478
19.0851
19.0676
19.0663
19.0655
19.0651
19.0646
19.0644
19.0663
19.1145
20.0504
30.9278
135.453
19.0749
19.0572
19.0555
19.0556
19.0553
19.0549
19.0548
19.0563
19.0971
19.9313
30.0672
131.688
19.0653
19.0477
19.0461
19.0459
19.0464
19.0459
19.0461
19.0468
19.0815
19.8252
29.2826
128.129
19.5592
19.6153
19.6217
19.6219
19.6235
19.623
19.6227
19.6223
19.6517
20.3314
29.2079
124.764
22.4954
22.6073
22.6246
22.6226
22.631
22.6276
22.6297
22.6254
22.6538
23.3126
31.5747
121.564
34.6066
34.9118
34.9528
34.9509
34.9824
34.9731
34.9711
34.953
34.9656
35.4613
42.1419
118.462
72.3934
72.6321
72.6309
72.6054
72.7264
72.676
72.6867
72.6131
72.5938
72.7468
75.489
110.758
249.074
248.374
248.315
248.291
248.286
248.294
248.251
248.211
248.214
248.19
247.55
240.901
155.698
31.6866
20.4339
19.2456
19.1241
19.1129
19.112
19.1129
19.1137
19.1133
19.1139
19.1178
148.869
32.9792
20.595
19.2502
19.1122
19.0998
19.0984
19.0996
19.0994
19.0991
19.0997
19.1035
143.909
32.5227
20.5287
19.2309
19.0993
19.0871
19.0861
19.0868
19.0862
19.0858
19.0867
19.0902
139.566
31.6931
20.3921
19.2033
19.0862
19.0754
19.0748
19.0754
19.0751
19.0745
19.0747
19.0783
135.54
30.8306
20.2486
19.1756
19.0736
19.0646
19.064
19.0648
19.0647
19.0641
19.0646
19.0673
131.751
30.0141
20.114
19.1498
19.0621
19.0549
19.0543
19.055
19.0547
19.0545
19.0547
19.0577
128.185
29.2572
19.9935
19.1269
19.0515
19.0457
19.0453
19.046
19.0455
19.0457
19.046
19.048
124.816
29.1148
20.4758
19.6884
19.6214
19.6159
19.6153
19.6157
19.6152
19.6154
19.6159
19.619
121.628
31.4257
23.4144
22.6732
22.6084
22.6011
22.5976
22.5996
22.5974
22.6002
22.6001
22.5879
118.577
41.8362
35.4872
34.9212
34.8645
34.8552
34.8434
34.8403
34.8327
34.8434
34.8539
34.8473
111.266
75.2198
72.6294
72.3996
72.3646
72.3656
72.3385
72.3363
72.3113
72.3667
72.392
72.3817
241.628
247.609
248.16
248.204
248.224
248.259
248.264
248.245
248.32
248.308
248.272
248.402
19.1393
19.1184
19.1155
19.1148
19.1144
19.1138
19.1129
19.1141
19.1704
20.1943
32.046
155.647
19.124
19.1037
19.1011
19.1011
19.1005
19.0998
19.099
19.1009
19.169
20.3644
33.3487
148.748
19.1103
19.0907
19.0885
19.0883
19.088
19.0871
19.0867
19.0886
19.1535
20.3064
32.7947
143.803
19.0979
19.0786
19.0766
19.0763
19.0766
19.0758
19.0754
19.0769
19.134
20.1825
31.8721
139.48
19.0867
19.0678
19.0659
19.0654
19.066
19.0654
19.0649
19.066
19.1146
20.0523
30.9471
135.46
19.076
19.0576
19.0557
19.0554
19.0559
19.0555
19.0549
19.056
19.0973
19.9329
30.0856
131.681
19.0663
19.0483
19.0464
19.0463
19.0467
19.0466
19.046
19.0468
19.0818
19.8266
29.3013
128.124
19.5595
19.6153
19.621
19.6218
19.6224
19.6224
19.6218
19.6218
19.6514
20.332
29.2269
124.762
22.4942
22.6069
22.6207
22.6255
22.6265
22.6273
22.6266
22.6237
22.6523
23.3103
31.5922
121.56
34.6077
34.9127
34.958
34.98
34.9797
34.9815
34.9721
34.9574
34.9677
35.4566
42.1541
118.46
72.3997
72.6708
72.7095
72.788
72.7695
72.7704
72.7247
72.6558
72.6334
72.7465
75.4964
110.756
249.059
248.371
248.249
248.233
248.266
248.241
248.23
248.211
248.209
248.189
247.551
240.9
155.738
31.6808
20.4315
19.2457
19.124
19.1124
19.112
19.112
19.1128
19.1126
19.1138
19.1176
148.875
32.9765
20.5914
19.2505
19.1123
19.0996
19.0989
19.0991
19.099
19.0988
19.0994
19.1029
143.906
32.5181
20.5274
19.2313
19.0993
19.0873
19.0864
19.0872
19.0868
19.0863
19.0864
19.0897
139.556
31.6873
20.3923
19.2037
19.0862
19.0757
19.0749
19.0762
19.0758
19.0751
19.0747
19.0777
135.534
30.8276
20.248
19.1757
19.0738
19.065
19.0642
19.0655
19.0652
19.064
19.0637
19.0667
131.753
30.0118
20.1137
19.1499
19.0624
19.0552
19.0545
19.0556
19.0552
19.0542
19.054
19.0569
128.187
29.255
19.9932
19.1269
19.0516
19.046
19.0453
19.0464
19.0453
19.0451
19.045
19.0475
124.818
29.1131
20.4755
19.6884
19.6214
19.6163
19.6153
19.6158
19.6148
19.6149
19.615
19.6182
121.628
31.4263
23.4152
22.6738
22.608
22.6021
22.5971
22.5994
22.5937
22.6001
22.599
22.5866
118.575
41.8537
35.4953
34.9243
34.8645
34.8537
34.8403
34.8384
34.8379
34.8504
34.853
34.8481
111.266
75.2915
72.6508
72.4029
72.3585
72.3493
72.3261
72.3273
72.3209
72.4159
72.4013
72.3915
241.631
247.604
248.156
248.205
248.229
248.261
248.305
248.293
248.313
248.378
248.402
248.472
19.1383
19.1169
19.1135
19.1135
19.1129
19.112
19.1113
19.1129
19.1692
20.1913
32.0133
155.646
19.1226
19.1027
19.0997
19.0997
19.0994
19.0989
19.0982
19.1002
19.1683
20.3607
33.3159
148.754
19.1092
19.09
19.0872
19.0868
19.0869
19.0866
19.0862
19.0879
19.1528
20.3033
32.7646
143.822
19.0969
19.0778
19.0756
19.0757
19.0756
19.0754
19.0751
19.0764
19.1335
20.1798
31.8482
139.482
19.0856
19.0673
19.0657
19.0653
19.0648
19.0648
19.0647
19.0656
19.1144
20.0501
30.9258
135.462
19.075
19.0576
19.0562
19.0556
19.0553
19.0551
19.0551
19.056
19.0969
19.931
30.068
131.691
19.0656
19.0483
19.0468
19.0462
19.0467
19.046
19.0462
19.0466
19.0815
19.8251
29.2839
128.128
19.5594
19.6155
19.6218
19.6224
19.6234
19.6225
19.6225
19.6219
19.6515
20.331
29.2106
124.761
22.4949
22.6066
22.6229
22.6226
22.6309
22.6255
22.6293
22.6236
22.6539
23.3112
31.5774
121.562
34.6063
34.9101
34.9506
34.9587
34.9864
34.9716
34.9774
34.9517
34.9694
35.457
42.1427
118.462
72.4004
72.6351
72.6307
72.6379
72.7665
72.6918
72.7266
72.6091
72.6199
72.7277
75.4888
110.757
249.065
248.374
248.304
248.304
248.28
248.25
248.212
248.211
248.215
248.189
247.553
240.903
155.67
31.6837
20.4325
19.2454
19.1242
19.1121
19.1117
19.1118
19.1132
19.1138
19.114
19.1174
148.85
32.9803
20.5919
19.25
19.1122
19.0986
19.0977
19.0985
19.0985
19.0988
19.0989
19.1033
143.905
32.5221
20.5273
19.2309
19.0992
19.0864
19.0855
19.0867
19.0864
19.0861
19.0865
19.0898
139.564
31.6924
20.3912
19.2032
19.0861
19.0751
19.0746
19.0755
19.0754
19.0749
19.0751
19.0784
135.536
30.8308
20.2476
19.1754
19.0735
19.0648
19.0641
19.065
19.0649
19.0643
19.0646
19.067
131.75
30.0132
20.1139
19.1497
19.0621
19.0551
19.0544
19.0547
19.0548
19.0543
19.0543
19.0573
128.187
29.2576
19.9929
19.1269
19.0514
19.046
19.045
19.0458
19.045
19.0454
19.0457
19.0478
124.818
29.1154
20.4752
19.6882
19.6211
19.6159
19.6149
19.6151
19.6144
19.6148
19.6154
19.6186
121.628
31.4265
23.4133
22.6734
22.6068
22.6015
22.5958
22.5986
22.5942
22.5986
22.5986
22.5874
118.576
41.8377
35.4865
34.9239
34.8611
34.8529
34.8345
34.8466
34.8285
34.847
34.8558
34.843
111.265
75.2288
72.6313
72.4159
72.3611
72.3678
72.305
72.3676
72.3123
72.3948
72.4087
72.3615
241.627
247.609
248.158
248.202
248.233
248.254
248.266
248.26
248.299
248.303
248.271
248.395
)
;

boundaryField
{
    rotor
    {
        type            epsilonWallFunction;
        Cmu             0.09;
        kappa           0.41;
        E               9.8;
        value           nonuniform List<scalar> 
192
(
493.513
288.592
293.096
294.156
294.424
294.482
294.517
294.522
294.531
294.532
294.549
294.545
294.552
294.544
294.55
294.54
294.552
294.526
294.515
294.512
294.498
294.454
289.186
489.913
491.55
288.322
293.058
294.151
294.441
294.475
294.508
294.495
294.526
294.548
294.588
294.545
294.531
294.542
294.554
294.542
294.565
294.549
294.53
294.505
294.501
294.454
289.192
489.917
493.518
288.599
293.099
294.153
294.419
294.472
294.504
294.514
294.528
294.51
294.544
294.539
294.552
294.536
294.522
294.535
294.552
294.534
294.523
294.51
294.507
294.454
289.189
489.914
493.593
288.613
293.106
294.16
294.43
294.496
294.537
294.545
294.544
294.542
294.554
294.549
294.554
294.548
294.551
294.54
294.534
294.52
294.522
294.503
294.5
294.453
289.187
489.915
493.513
448.544
405.817
370.2
340.344
315.216
293.751
275.251
259.045
244.828
232.243
224.497
489.915
447.118
405.046
369.498
339.955
314.959
293.419
274.93
258.763
244.861
232.444
223.485
491.55
448.395
405.796
370.31
340.601
315.451
294.456
276.218
260.38
246.291
233.363
226.309
489.913
447.125
405.126
369.702
340.259
315.177
293.898
275.825
259.86
245.588
233.4
225.229
493.518
448.556
405.874
370.211
340.664
315.491
294.334
275.579
259.316
246.048
233.312
226.297
489.917
447.128
405.125
369.644
339.969
315.024
293.89
275.729
259.317
245.377
232.592
222.945
493.593
448.655
405.837
370.228
340.527
315.564
294.049
275.31
259.17
245.447
233.508
225.341
489.914
447.122
405.114
369.625
339.947
314.977
293.777
275.316
259.4
245.073
232.489
223.534
)
;
    }
    stator
    {
        type            epsilonWallFunction;
        Cmu             0.09;
        kappa           0.41;
        E               9.8;
        value           nonuniform List<scalar> 
192
(
248.993
248.374
248.351
248.285
248.273
248.261
248.224
248.204
248.208
248.184
247.548
240.909
241.626
247.606
248.158
248.204
248.228
248.25
248.255
248.265
248.327
248.32
248.345
248.468
249.074
248.374
248.315
248.291
248.286
248.294
248.251
248.211
248.214
248.19
247.55
240.901
241.628
247.609
248.16
248.204
248.224
248.259
248.264
248.245
248.32
248.308
248.272
248.402
249.059
248.371
248.249
248.233
248.266
248.241
248.23
248.211
248.209
248.189
247.551
240.9
241.631
247.604
248.156
248.205
248.229
248.261
248.305
248.293
248.313
248.378
248.402
248.472
249.065
248.374
248.304
248.304
248.28
248.25
248.212
248.211
248.215
248.189
247.553
240.903
241.627
247.609
248.158
248.202
248.233
248.254
248.266
248.26
248.299
248.303
248.271
248.395
155.671
148.87
143.92
139.566
135.538
131.75
128.184
124.817
121.627
118.575
111.265
241.626
155.652
148.749
143.801
139.471
135.459
131.685
128.124
124.762
121.563
118.461
110.756
240.909
155.698
148.869
143.909
139.566
135.54
131.751
128.185
124.816
121.628
118.577
111.266
241.628
155.687
148.815
143.83
139.478
135.453
131.688
128.129
124.764
121.564
118.462
110.758
240.901
155.738
148.875
143.906
139.556
135.534
131.753
128.187
124.818
121.628
118.575
111.266
241.631
155.647
148.748
143.803
139.48
135.46
131.681
128.124
124.762
121.56
118.46
110.756
240.9
155.67
148.85
143.905
139.564
135.536
131.75
128.187
124.818
121.628
118.576
111.265
241.627
155.646
148.754
143.822
139.482
135.462
131.691
128.128
124.761
121.562
118.462
110.757
240.903
)
;
    }
    front
    {
        type            empty;
    }
    back
    {
        type            empty;
    }
}


// ************************************************************************* //
