/*--------------------------------*- C++ -*----------------------------------*\
  =========                 |
  \\      /  F ield         | OpenFOAM: The Open Source CFD Toolbox
   \\    /   O peration     | Website:  https://openfoam.org
    \\  /    A nd           | Version:  6
     \\/     M anipulation  |
\*---------------------------------------------------------------------------*/
FoamFile
{
    version     2.0;
    format      ascii;
    class       volScalarField;
    location    "1000";
    object      nut;
}
// * * * * * * * * * * * * * * * * * * * * * * * * * * * * * * * * * * * * * //

dimensions      [0 2 -1 0 0 0 0];

internalField   nonuniform List<scalar> 
3072
(
6.45013e-05
0.000163462
0.000170931
0.000175692
0.000173912
0.000176647
0.000173646
0.000176105
0.000173067
0.000178084
0.000184725
0.000185944
8.06217e-05
0.00048832
0.000977859
0.00128393
0.00141574
0.00146829
0.00148848
0.00149957
0.00150321
0.00150765
0.00150959
0.00151087
8.72676e-05
0.000642673
0.00171728
0.00272692
0.00324675
0.00343408
0.00349069
0.00350552
0.00350878
0.00351243
0.00351343
0.00351091
9.19201e-05
0.000706466
0.0020217
0.00333821
0.00401019
0.00423615
0.00429816
0.00431452
0.00431858
0.00431982
0.00431949
0.00431817
0.000104405
0.000770249
0.00220051
0.00356464
0.00421472
0.00441815
0.00447074
0.00448333
0.00448629
0.00448684
0.00448663
0.00448681
0.000116105
0.000837
0.00235228
0.00369879
0.00429046
0.00446292
0.00450557
0.00451517
0.00451721
0.00451838
0.00451856
0.00451735
0.000129726
0.000908688
0.00249337
0.00380806
0.00433594
0.00448159
0.00451624
0.00452327
0.00452458
0.00452538
0.00452375
0.00452278
0.000144669
0.000985888
0.00263124
0.0038967
0.00436936
0.00449312
0.00452065
0.00452588
0.0045272
0.00452836
0.00452723
0.00452526
0.000161837
0.00106254
0.00274891
0.00397057
0.00439543
0.00450211
0.00452417
0.00452852
0.00453053
0.00453033
0.00452885
0.00452777
0.000169533
0.00110913
0.00283947
0.00402054
0.00441358
0.00450809
0.00452762
0.00452904
0.0045285
0.00453059
0.00453026
0.00452982
0.000184186
0.00113122
0.00291268
0.00406429
0.00443007
0.00451204
0.00452842
0.00452901
0.00452828
0.00453001
0.0045307
0.0045303
0.00025641
0.00129471
0.00312053
0.00415655
0.00445387
0.00451738
0.00452904
0.00452961
0.00452784
0.00452869
0.00453007
0.00453083
0.000183992
0.00018502
0.000183358
0.000184446
0.000185834
0.000193213
0.000192536
0.000190699
0.000182123
0.000168049
0.000150855
6.40161e-05
0.00150942
0.00150949
0.00150863
0.00150883
0.00150982
0.00151283
0.00151489
0.00150439
0.00140807
0.00104015
0.000467702
8.06156e-05
0.00350782
0.00350614
0.0035048
0.00350266
0.00350321
0.00350618
0.00350737
0.00344506
0.00305808
0.00192028
0.000705817
8.76804e-05
0.00431696
0.0043162
0.00431527
0.00431435
0.00431437
0.00431446
0.00431462
0.00424444
0.00378728
0.00233588
0.000827697
9.6566e-05
0.00448726
0.00448712
0.00448657
0.00448632
0.00448592
0.00448549
0.00448549
0.00443012
0.0040158
0.00256723
0.000923091
0.00010814
0.00451726
0.00451824
0.00451804
0.00451752
0.00451768
0.00451752
0.00451714
0.0044738
0.0041289
0.00275001
0.00101299
0.000115534
0.00452344
0.00452396
0.00452346
0.00452393
0.00452439
0.00452405
0.00452375
0.00449134
0.00420547
0.00292738
0.00110989
0.00012847
0.0045254
0.00452609
0.00452529
0.00452538
0.00452614
0.00452688
0.00452716
0.00450184
0.00426582
0.00308489
0.00120919
0.000145366
0.00452709
0.00452761
0.00452734
0.00452652
0.00452709
0.00452745
0.0045271
0.00451088
0.00431288
0.00324256
0.00131763
0.000164886
0.00452835
0.00452888
0.00452928
0.00452844
0.00452983
0.00452981
0.00453008
0.0045189
0.00435687
0.00338981
0.00143613
0.000184222
0.00453037
0.00453077
0.00453044
0.00453069
0.00453095
0.00453077
0.00453048
0.00452213
0.00439451
0.00354327
0.00158538
0.00020622
0.00453162
0.00453261
0.00453345
0.00453347
0.00453236
0.00453167
0.00453225
0.00452724
0.00443424
0.00374341
0.00186347
0.000240371
9.16362e-05
0.000172241
0.00017237
0.000176023
0.000173359
0.000179583
0.000186596
0.000185283
0.00017222
0.000177954
0.00018859
0.00019388
7.57148e-05
0.000503315
0.000996718
0.00129968
0.0014283
0.00148145
0.00150349
0.00151206
0.00151048
0.00151205
0.00151471
0.00151528
8.15974e-05
0.000647775
0.0017277
0.00273785
0.00325456
0.00343922
0.00349512
0.00350951
0.00351347
0.0035166
0.00351551
0.00351175
9.1257e-05
0.000711927
0.00203002
0.00334162
0.00401261
0.00423725
0.00429918
0.00431511
0.00431957
0.00432077
0.00431989
0.00431835
0.000101708
0.000774705
0.00220677
0.00356817
0.00421583
0.00441857
0.00447132
0.0044838
0.00448679
0.00448745
0.00448746
0.00448725
0.000116819
0.000843126
0.00235619
0.00370108
0.00429008
0.0044632
0.00450621
0.00451538
0.00451685
0.00451724
0.00451693
0.00451658
0.000130104
0.000913588
0.00249637
0.00380851
0.00433575
0.00448167
0.00451606
0.00452355
0.00452463
0.00452534
0.00452447
0.00452313
0.000147058
0.000993308
0.00263452
0.00389609
0.00436852
0.00449284
0.00452073
0.00452659
0.00452698
0.00452709
0.00452632
0.00452417
0.000162929
0.00107037
0.00275713
0.00396808
0.00439402
0.00450023
0.00452313
0.00452637
0.00452795
0.00452911
0.00452667
0.00452454
0.000171708
0.00112044
0.00284441
0.00402116
0.00441439
0.00450771
0.00452756
0.00453187
0.00453216
0.00453084
0.00452842
0.00452871
0.000184493
0.00113972
0.00290623
0.00406851
0.00443254
0.00451302
0.00452836
0.00453051
0.00452904
0.0045279
0.00453025
0.00453346
0.000256197
0.00130106
0.00311379
0.00416163
0.00445559
0.00451964
0.00453058
0.00453003
0.00452932
0.00452911
0.00453068
0.00453197
0.000183007
0.000176664
0.000184881
0.000186152
0.000187637
0.000195502
0.000194718
0.000192919
0.00018371
0.000169193
0.000152526
6.51763e-05
0.00151172
0.00150947
0.00151047
0.00151111
0.00151237
0.00151552
0.00151739
0.00150692
0.00141006
0.00103837
0.00046374
8.181e-05
0.0035092
0.0035069
0.00350539
0.00350453
0.00350619
0.00350637
0.00350354
0.00344158
0.00305717
0.00191904
0.000704975
8.78141e-05
0.00431713
0.00431622
0.00431562
0.00431493
0.00431477
0.00431501
0.00431463
0.00424408
0.0037874
0.00233544
0.000825015
9.2616e-05
0.00448687
0.0044865
0.00448634
0.00448615
0.00448607
0.00448607
0.00448614
0.00442935
0.00402043
0.00256741
0.000922593
0.000105705
0.0045166
0.00451693
0.00451708
0.00451707
0.00451728
0.00451757
0.00451809
0.00447597
0.00412388
0.00275008
0.00101375
0.000116032
0.00452303
0.00452322
0.00452391
0.00452378
0.00452375
0.00452395
0.00452448
0.0044934
0.00419945
0.00292128
0.00110926
0.000128541
0.00452394
0.00452487
0.00452455
0.00452501
0.00452525
0.00452564
0.00452724
0.00450252
0.00426467
0.00308681
0.00120708
0.000144328
0.00452614
0.00452662
0.00452603
0.00452526
0.00452489
0.00452639
0.0045282
0.00451204
0.00431412
0.00324073
0.00131599
0.000164464
0.00452947
0.00452941
0.00452921
0.00452847
0.00452819
0.00452763
0.0045293
0.00451683
0.00436078
0.00340352
0.00143036
0.000177538
0.00453182
0.00453162
0.00453329
0.00453052
0.00452891
0.00452992
0.00452995
0.00451932
0.0043963
0.00354978
0.00158426
0.000204453
0.0045318
0.00453237
0.0045335
0.0045298
0.00452807
0.00453137
0.00453169
0.00452372
0.00443656
0.00375036
0.00186825
0.000246982
6.45394e-05
0.000163482
0.000170966
0.000175659
0.000173909
0.000176612
0.000173656
0.000178982
0.000185468
0.000186824
0.000184618
0.000185953
8.06592e-05
0.000488277
0.000977438
0.00128331
0.00141487
0.00146773
0.0014881
0.00150039
0.0015069
0.00151056
0.00150982
0.00151058
8.71141e-05
0.000642729
0.00171583
0.00272526
0.00324512
0.00343268
0.00349011
0.00350742
0.00351284
0.00351273
0.00350954
0.00351018
9.572e-05
0.000708248
0.00201972
0.003335
0.00400977
0.00423598
0.00429777
0.00431415
0.00431792
0.0043179
0.00431775
0.00431773
0.000108036
0.000771247
0.00219487
0.00356254
0.00421364
0.00441822
0.00447111
0.00448352
0.00448577
0.00448592
0.00448622
0.00448646
0.000116502
0.000836213
0.00234339
0.00369562
0.00428907
0.00446247
0.00450477
0.00451397
0.00451544
0.00451611
0.00451711
0.00451685
0.000129261
0.000906986
0.00248366
0.0038014
0.00433351
0.00448012
0.00451491
0.00452084
0.00452108
0.00452224
0.00452343
0.00452333
0.000139882
0.000982046
0.00261647
0.00389038
0.00436762
0.00449215
0.00452013
0.00452382
0.00452326
0.00452473
0.00452588
0.00452673
0.000158985
0.00106005
0.0027355
0.00396233
0.00439437
0.00450098
0.00452436
0.00452667
0.00452597
0.00452735
0.00452787
0.00452856
0.00016974
0.0011081
0.00282668
0.00401914
0.0044144
0.00450766
0.0045281
0.00452971
0.00452825
0.00452859
0.00452994
0.00453055
0.000184167
0.00113303
0.00290654
0.00407086
0.00443076
0.00451277
0.00453121
0.00453265
0.00453054
0.00452953
0.00452789
0.00452855
0.000254463
0.00129924
0.00312312
0.00415918
0.00445697
0.0045214
0.00453413
0.00453327
0.00453046
0.00453033
0.00453089
0.00453103
0.000186936
0.000192105
0.000181756
0.000175423
0.00018607
0.000193325
0.000192667
0.000190816
0.000182218
0.000168129
0.000150985
6.41093e-05
0.00151039
0.00151113
0.00150808
0.00150661
0.00150958
0.00151277
0.00151488
0.00150445
0.00140815
0.00104002
0.00046735
8.07207e-05
0.00350915
0.0035055
0.0035028
0.00350341
0.00350372
0.00350281
0.00350472
0.0034445
0.00305847
0.00192095
0.000705761
8.73697e-05
0.00431692
0.00431571
0.0043149
0.00431538
0.00431533
0.0043143
0.00431393
0.00424432
0.00378769
0.00233856
0.00082504
9.26811e-05
0.00448641
0.00448653
0.00448614
0.00448544
0.00448548
0.00448558
0.00448511
0.00442981
0.00402135
0.00256777
0.000921473
0.000105094
0.00451623
0.00451678
0.0045174
0.0045171
0.00451707
0.00451711
0.00451669
0.00447635
0.0041259
0.00275477
0.00101226
0.000115578
0.00452264
0.00452289
0.00452393
0.00452434
0.00452419
0.00452358
0.00452347
0.00449226
0.00420488
0.00292248
0.0011084
0.000128386
0.00452623
0.00452463
0.00452624
0.00452716
0.00452668
0.00452532
0.00452479
0.0045024
0.0042664
0.00308607
0.00120896
0.00014502
0.00452876
0.00452674
0.00452719
0.00452932
0.00452967
0.00452777
0.00452708
0.00451016
0.00431874
0.00324249
0.0013159
0.000164422
0.00453016
0.00452885
0.00452724
0.00452744
0.00452813
0.00452855
0.00452934
0.00451717
0.00436362
0.00341042
0.00143266
0.000183765
0.00453017
0.00453002
0.00453137
0.00453188
0.00453042
0.00452894
0.00453103
0.00452254
0.00439891
0.00356442
0.00158058
0.00020813
0.00453118
0.00453162
0.00453214
0.0045317
0.0045312
0.00453189
0.00453397
0.00452783
0.00443436
0.00375026
0.00186403
0.00024498
6.44757e-05
0.000162895
0.00017076
0.000175056
0.000173583
0.000175623
0.000175568
0.000188868
0.000190782
0.000185741
0.000183523
0.000184853
8.04406e-05
0.000488055
0.000978091
0.00128448
0.00141644
0.00146878
0.00149028
0.00150432
0.00150943
0.00151106
0.00151045
0.00151052
8.68825e-05
0.000641817
0.00171557
0.00272617
0.00324578
0.00343405
0.00349166
0.00350857
0.0035115
0.00351017
0.00350853
0.0035071
9.17682e-05
0.000706163
0.0020195
0.00333565
0.00401004
0.00423578
0.00429794
0.00431437
0.00431818
0.00431811
0.00431773
0.00431712
0.000104092
0.000769534
0.00219646
0.0035623
0.00421392
0.00441793
0.00447083
0.00448379
0.00448686
0.00448724
0.00448698
0.00448684
0.000117121
0.000836759
0.00234392
0.00369639
0.00428891
0.00446322
0.00450608
0.00451511
0.00451647
0.00451687
0.00451666
0.0045167
0.000126984
0.000905802
0.00248336
0.00380105
0.00433493
0.00448193
0.00451604
0.0045222
0.00452298
0.00452231
0.00452231
0.00452366
0.000140216
0.000983321
0.00261715
0.0038916
0.00436825
0.0044929
0.00452102
0.00452607
0.00452681
0.0045252
0.00452396
0.00452495
0.000150286
0.0010562
0.00273411
0.00396243
0.00439463
0.00450094
0.00452414
0.00452872
0.00453006
0.00452907
0.00452898
0.00452892
0.000164418
0.00110521
0.00282323
0.00401758
0.0044136
0.00450677
0.00452683
0.00452994
0.00453152
0.00453176
0.00453009
0.00452834
0.000184313
0.00113037
0.00289695
0.00406744
0.00443041
0.00451233
0.00452837
0.00452966
0.00452987
0.00453151
0.00453333
0.00453213
0.000256879
0.00129664
0.00311456
0.00416062
0.00445461
0.00451697
0.00453063
0.00453182
0.00453058
0.00452904
0.00452833
0.00453079
0.000183339
0.000184657
0.00018601
0.000193837
0.000190984
0.000185975
0.000186708
0.000191368
0.000182984
0.000168982
0.000152165
6.46638e-05
0.00150937
0.00150913
0.00150943
0.00151158
0.00151149
0.00151164
0.00151376
0.00150505
0.00140919
0.00103962
0.000465821
8.12961e-05
0.00350534
0.00350459
0.00350656
0.00350871
0.00350668
0.00350355
0.00350264
0.00344278
0.00306272
0.00192182
0.000705859
8.75924e-05
0.00431609
0.00431555
0.00431606
0.00431624
0.00431526
0.00431452
0.00431417
0.00424455
0.00378802
0.00233739
0.000825076
9.25847e-05
0.00448669
0.00448645
0.00448636
0.00448622
0.00448624
0.00448633
0.00448586
0.00442895
0.00402094
0.00256643
0.00092193
0.000105227
0.00451702
0.00451762
0.00451744
0.00451674
0.00451632
0.00451679
0.00451677
0.00447639
0.00412545
0.00275721
0.0010132
0.000115234
0.00452425
0.00452522
0.00452579
0.00452516
0.00452449
0.00452452
0.00452488
0.00449257
0.00420471
0.00292461
0.00110969
0.000128562
0.00452585
0.0045267
0.00452625
0.00452583
0.00452655
0.00452681
0.00452655
0.00450445
0.00426158
0.00308728
0.00120801
0.000145031
0.00452885
0.0045298
0.00453007
0.0045303
0.00452988
0.00452856
0.00452873
0.00451252
0.00431235
0.00323983
0.00131735
0.000165252
0.00452812
0.00452929
0.00452965
0.00453076
0.00453049
0.00453073
0.00453184
0.00451871
0.00435683
0.00338933
0.00143313
0.000180827
0.00452971
0.00452967
0.00452994
0.00452971
0.00453057
0.00453181
0.00453065
0.00452049
0.00439622
0.00355587
0.00157868
0.000204331
0.0045324
0.00453126
0.00453016
0.0045299
0.00453063
0.00453105
0.00453128
0.00452423
0.00443589
0.00374724
0.00186381
0.000243975
0.00137211
0.00254973
0.00376806
0.00433381
0.00448924
0.00452563
0.00453246
0.0045324
0.00453121
0.00453224
0.00453228
0.00453231
0.00295737
0.00367503
0.00422608
0.00445416
0.00451643
0.00453105
0.00453247
0.00453068
0.0045304
0.00453344
0.00453469
0.00453263
0.004004
0.00425418
0.00443378
0.00451033
0.00453138
0.00453109
0.00452911
0.0045301
0.0045309
0.00453438
0.00453582
0.00453327
0.00439204
0.00445423
0.00450847
0.0045315
0.00453711
0.00453531
0.00453201
0.00453372
0.00453476
0.00453547
0.004535
0.00453485
0.00453226
0.00453187
0.00453281
0.00453302
0.00453153
0.00453401
0.00453479
0.00453
0.00448998
0.00415133
0.00283348
0.000893112
0.00453165
0.00453166
0.00453214
0.00453467
0.00453537
0.00453474
0.00453419
0.00453161
0.00451794
0.00439696
0.00380701
0.00252878
0.00453511
0.00453752
0.00453425
0.00453362
0.00453469
0.0045354
0.00453413
0.00453457
0.00453146
0.00449576
0.00431074
0.00384552
0.00453751
0.00453838
0.00453604
0.0045351
0.00453563
0.00453682
0.0045356
0.00453664
0.00453614
0.00452726
0.00447808
0.00435695
0.00137459
0.00253171
0.00377028
0.00433668
0.00449024
0.00452597
0.00453458
0.00453351
0.00453241
0.00453325
0.00453172
0.00453197
0.00295181
0.00367087
0.00422787
0.00445412
0.00451744
0.00453217
0.00453652
0.00453628
0.00453374
0.00453155
0.00453157
0.00453374
0.0039975
0.00425449
0.00443599
0.00450977
0.00453152
0.00453452
0.00453298
0.00453268
0.00453129
0.00453034
0.00453005
0.00453513
0.00439222
0.00445791
0.00450831
0.00452968
0.00453634
0.00453665
0.00453664
0.0045358
0.0045351
0.00453657
0.00453489
0.00453759
0.00453333
0.00453425
0.0045336
0.00453084
0.00453194
0.00453356
0.00453103
0.00452632
0.00448825
0.00415224
0.00284526
0.000904201
0.00453361
0.0045339
0.00453371
0.00453279
0.00453259
0.00453104
0.00452951
0.00452909
0.00451608
0.00439647
0.00381535
0.00256561
0.00453552
0.00453398
0.00453719
0.00453553
0.00453283
0.00453363
0.00453346
0.00453095
0.00452683
0.00449221
0.00431208
0.00386845
0.00453878
0.00453925
0.0045412
0.00454028
0.00453768
0.0045377
0.00453843
0.00453405
0.00453115
0.00452237
0.00447672
0.00436297
0.00137582
0.00254031
0.00376391
0.00433348
0.0044924
0.00452782
0.00453306
0.00453423
0.00453227
0.00453113
0.00453243
0.00453269
0.00297252
0.00367421
0.00422559
0.0044519
0.00451928
0.00453504
0.00453495
0.00453314
0.00453256
0.00453268
0.00453311
0.004532
0.00401537
0.00425541
0.00443549
0.00450675
0.0045307
0.00453705
0.00453742
0.00453304
0.00452942
0.00453169
0.00453452
0.00453128
0.00439692
0.00445779
0.0045071
0.00452788
0.00453581
0.00453612
0.00453704
0.00453608
0.00453367
0.00453403
0.00453465
0.00453342
0.0045305
0.00453093
0.00453333
0.0045322
0.00453218
0.00453314
0.00453351
0.00453153
0.00448783
0.00415236
0.00284129
0.000904404
0.00453193
0.00453191
0.00453313
0.00453081
0.00453063
0.00453212
0.00453108
0.00453335
0.00451727
0.00439804
0.00380324
0.00256979
0.00452861
0.00453145
0.00453399
0.00453304
0.00453288
0.00453383
0.0045331
0.00453246
0.00452742
0.00449326
0.00430888
0.00386287
0.00453402
0.00453783
0.00453833
0.00453548
0.00453507
0.00453548
0.00453454
0.00453522
0.00453367
0.00452417
0.00447679
0.00436002
0.00137542
0.00253007
0.0037694
0.0043325
0.0044902
0.00452548
0.00453369
0.00453187
0.00453057
0.00453076
0.00453081
0.00453363
0.00297857
0.00366926
0.00422488
0.00445193
0.00451738
0.00453238
0.00453378
0.00453189
0.00452913
0.00453281
0.00453656
0.00453734
0.00401348
0.00425587
0.00443263
0.0045088
0.00453147
0.00453418
0.004532
0.00453324
0.00453218
0.00453334
0.00453692
0.00453524
0.00439549
0.00445848
0.00450656
0.00452871
0.00453462
0.00453531
0.00453398
0.00453379
0.00453506
0.00453338
0.00453602
0.00453606
0.0045352
0.00453197
0.00452879
0.00453135
0.00453283
0.00453241
0.0045337
0.00453088
0.00448939
0.00415058
0.00284553
0.000899387
0.00453693
0.00453649
0.00453308
0.00453277
0.00453463
0.00453368
0.00453159
0.00453464
0.00451937
0.00439789
0.00381914
0.00255547
0.00453284
0.00453427
0.00453313
0.00453105
0.00453311
0.00453181
0.00453363
0.00453824
0.00453192
0.00449603
0.00431366
0.00385514
0.00453155
0.00453336
0.00453718
0.00453596
0.00453531
0.00453256
0.00453154
0.00453352
0.00453637
0.00452664
0.00448072
0.00436005
0.00450155
0.00451733
0.00453047
0.00453615
0.00453784
0.00453769
0.0045369
0.00453702
0.00453709
0.00453757
0.00453735
0.00449798
0.00452959
0.00453389
0.00453731
0.00453848
0.0045388
0.0045389
0.00453872
0.00453854
0.00453847
0.00453848
0.00448349
0.00421371
0.00453685
0.00453838
0.00453935
0.00453962
0.00453964
0.0045398
0.00453976
0.00453972
0.0045397
0.0045132
0.00421668
0.00316019
0.00453901
0.0045399
0.00453998
0.00454048
0.00454044
0.00454057
0.00454066
0.00454055
0.00453542
0.00442729
0.00348917
0.0015415
0.00448789
0.00452591
0.00453582
0.00453735
0.00453762
0.00453827
0.00453795
0.0045381
0.00453813
0.00453567
0.00452283
0.00449498
0.00418823
0.00444693
0.00452437
0.00453717
0.00453865
0.00453922
0.00453909
0.00453927
0.0045392
0.00453842
0.00453542
0.00452908
0.00308151
0.00412196
0.00447433
0.00453191
0.00453903
0.00454007
0.00453989
0.00454008
0.00454011
0.00453969
0.00453905
0.00453739
0.0014706
0.0034393
0.00436225
0.00451994
0.00453846
0.00454054
0.00454047
0.00454068
0.00454069
0.00454041
0.00454032
0.00453981
0.00450176
0.00451795
0.0045303
0.00453573
0.00453727
0.00453768
0.00453777
0.00453736
0.00453726
0.00453741
0.00453698
0.00449824
0.00452972
0.00453385
0.00453685
0.0045383
0.00453841
0.0045387
0.00453864
0.00453866
0.00453853
0.00453845
0.00448366
0.0042126
0.00453698
0.0045384
0.00453922
0.00453957
0.00453944
0.00453968
0.00453961
0.00453967
0.00453951
0.00451311
0.00421649
0.00315427
0.004539
0.00454007
0.00454038
0.00454041
0.00454034
0.00454054
0.00454053
0.00454044
0.00453514
0.00442726
0.00348823
0.00153396
0.00448824
0.00452656
0.00453705
0.00453847
0.00453847
0.00453844
0.00453832
0.00453705
0.00453651
0.00453406
0.00452234
0.00449616
0.00418894
0.00444712
0.00452445
0.00453716
0.00453885
0.004539
0.00453918
0.00453905
0.00453868
0.00453823
0.00453533
0.00452958
0.00308901
0.00412304
0.00447435
0.00453188
0.00453898
0.00453965
0.00453992
0.00454021
0.00453984
0.00453978
0.004539
0.00453769
0.00148562
0.00343995
0.00436232
0.00452009
0.00453853
0.00454032
0.0045405
0.00454078
0.00454058
0.00454063
0.00454035
0.00454
0.00450265
0.00451792
0.00452961
0.00453511
0.00453752
0.00453749
0.00453789
0.00453771
0.00453706
0.00453735
0.00453719
0.00449747
0.00452958
0.00453387
0.00453641
0.00453789
0.00453889
0.00453874
0.00453892
0.00453879
0.00453868
0.00453866
0.00448394
0.00421337
0.00453672
0.00453816
0.00453874
0.00453905
0.00453979
0.00453972
0.00453979
0.00453974
0.00453965
0.0045133
0.00421677
0.00316155
0.00453887
0.00453983
0.00454
0.00454011
0.00454055
0.00454047
0.00454054
0.00454054
0.00453534
0.00442725
0.00348876
0.00154096
0.00448688
0.00452613
0.00453653
0.00453766
0.00453754
0.00453718
0.00453712
0.00453785
0.00453766
0.00453485
0.00452172
0.00449512
0.00418851
0.0044472
0.00452448
0.00453708
0.00453865
0.00453875
0.00453873
0.004539
0.00453905
0.00453829
0.00453493
0.00452923
0.0030822
0.00412283
0.00447456
0.00453184
0.00453895
0.00453971
0.00453979
0.00453975
0.00453991
0.00453965
0.00453887
0.00453755
0.00147139
0.00343943
0.00436265
0.00452
0.00453849
0.00454045
0.00454052
0.00454073
0.00454064
0.00454055
0.0045403
0.0045399
0.00450208
0.00451791
0.00452984
0.00453565
0.00453753
0.00453744
0.00453722
0.00453717
0.00453735
0.00453724
0.00453749
0.00449773
0.00452956
0.00453397
0.0045369
0.00453819
0.00453897
0.00453881
0.00453881
0.00453867
0.00453864
0.0045386
0.00448385
0.00421259
0.00453679
0.00453855
0.00453919
0.00453917
0.00453969
0.00453978
0.00453988
0.00453963
0.00453961
0.00451341
0.00421624
0.00315659
0.00453887
0.0045402
0.0045402
0.00454003
0.00454042
0.00454058
0.00454061
0.00454041
0.00453533
0.00442729
0.00348936
0.00153518
0.00448632
0.00452487
0.00453611
0.00453742
0.00453753
0.00453716
0.00453714
0.00453712
0.00453782
0.00453582
0.00452346
0.00449537
0.00418879
0.00444649
0.00452408
0.00453697
0.0045387
0.00453885
0.00453894
0.00453892
0.00453892
0.00453867
0.00453542
0.00452921
0.00309133
0.00412252
0.00447427
0.00453183
0.00453901
0.00453976
0.00453987
0.00453988
0.0045396
0.00453961
0.00453894
0.00453764
0.00148776
0.00344046
0.00436247
0.00452005
0.00453854
0.00454046
0.0045406
0.00454075
0.00454028
0.00454041
0.00454031
0.00454001
0.00454002
0.00454088
0.00454091
0.00454125
0.00454117
0.00454115
0.00454137
0.00454095
0.00452669
0.00428185
0.00258519
0.000336973
0.00454073
0.00454169
0.00454195
0.00454195
0.00454183
0.00454172
0.00454199
0.0045414
0.00452404
0.00423945
0.00244809
0.000298811
0.00454141
0.00454229
0.00454257
0.00454258
0.00454243
0.00454233
0.00454255
0.00454194
0.00452531
0.00424888
0.0024856
0.000306457
0.00454197
0.00454294
0.00454313
0.00454306
0.00454291
0.00454292
0.00454305
0.00454257
0.0045279
0.00427427
0.00256365
0.000320001
0.00454258
0.00454354
0.00454364
0.00454355
0.00454343
0.00454352
0.00454356
0.00454319
0.00453061
0.00430187
0.00264877
0.000332918
0.0045431
0.004544
0.00454404
0.00454401
0.00454394
0.00454404
0.00454404
0.00454374
0.00453306
0.00432769
0.00273339
0.000347092
0.00454296
0.00454368
0.0045437
0.00454369
0.00454361
0.00454371
0.0045437
0.00454346
0.0045344
0.00435005
0.00281453
0.00036129
0.00441783
0.0044011
0.00439916
0.00439889
0.00439888
0.00439892
0.00439902
0.00439896
0.00439175
0.00423205
0.00282144
0.000376076
0.00379103
0.003766
0.00376245
0.0037614
0.00376125
0.0037611
0.00376138
0.00376163
0.00375665
0.00363878
0.00257022
0.000387942
0.00231754
0.00228773
0.00228329
0.00228143
0.00228174
0.00228141
0.00228224
0.00228315
0.00228241
0.00224284
0.00179406
0.000380443
0.000850147
0.000837377
0.000835616
0.000833969
0.000833883
0.000833383
0.000833762
0.000834314
0.000834699
0.000830655
0.000757684
0.000337971
9.91485e-05
9.92378e-05
9.90001e-05
9.87003e-05
9.83398e-05
9.7976e-05
9.76133e-05
9.72324e-05
9.70136e-05
9.69145e-05
9.52333e-05
8.32325e-05
0.000336335
0.00260187
0.00422004
0.00450624
0.00453791
0.004541
0.00454122
0.00454142
0.00454138
0.0045411
0.00454118
0.00454082
0.000301652
0.00246274
0.00417903
0.00450195
0.00453815
0.00454166
0.00454203
0.00454205
0.00454196
0.00454172
0.00454183
0.00454159
0.000308463
0.00249168
0.00418998
0.00450412
0.00453887
0.0045423
0.00454261
0.0045425
0.00454245
0.00454239
0.00454248
0.00454234
0.000320003
0.00256191
0.00421792
0.00450878
0.0045399
0.00454281
0.00454306
0.00454306
0.00454299
0.00454301
0.00454305
0.00454287
0.000333665
0.00264192
0.00424857
0.00451379
0.00454097
0.00454329
0.00454353
0.00454365
0.00454358
0.00454358
0.00454358
0.0045434
0.000347615
0.0027227
0.00427795
0.00451846
0.00454196
0.00454379
0.00454403
0.00454419
0.00454411
0.00454405
0.00454403
0.00454388
0.000362106
0.00280157
0.00430398
0.00452177
0.00454204
0.00454355
0.00454373
0.0045438
0.00454379
0.00454369
0.0045437
0.00454358
0.000376894
0.00281606
0.00419352
0.00438184
0.00439886
0.00440029
0.00440053
0.00440058
0.00440053
0.00440059
0.00440047
0.00440011
0.000389784
0.00257124
0.00361524
0.00375165
0.00376426
0.00376578
0.0037663
0.00376658
0.00376657
0.00376647
0.0037661
0.00376853
0.000382839
0.00180199
0.00223617
0.00228471
0.00228981
0.00229124
0.00229216
0.00229229
0.00229238
0.00229207
0.00229137
0.00229174
0.000339136
0.000760547
0.000830723
0.000837794
0.00083892
0.000839661
0.000840214
0.000840139
0.000840722
0.000840054
0.000839476
0.000839293
8.3562e-05
9.54374e-05
9.69614e-05
9.70627e-05
9.71336e-05
9.72645e-05
9.74712e-05
9.76431e-05
9.82046e-05
9.83142e-05
9.80853e-05
9.81715e-05
0.00454009
0.00454095
0.00454108
0.00454115
0.00454111
0.00454123
0.00454124
0.00454078
0.00452644
0.00428209
0.0025856
0.000335698
0.00454075
0.00454159
0.00454172
0.00454182
0.0045417
0.0045418
0.00454188
0.00454125
0.00452391
0.00423983
0.00244914
0.000298104
0.00454133
0.00454221
0.00454232
0.00454241
0.00454228
0.00454233
0.0045425
0.00454189
0.00452527
0.00424928
0.00248687
0.000305221
0.00454198
0.00454273
0.00454272
0.00454288
0.00454288
0.00454295
0.00454306
0.00454255
0.00452791
0.00427466
0.00256505
0.000318363
0.00454254
0.00454326
0.00454327
0.00454346
0.00454353
0.00454361
0.00454359
0.00454316
0.00453062
0.00430224
0.00265033
0.000332037
0.00454305
0.00454387
0.00454393
0.00454398
0.00454407
0.00454414
0.00454407
0.00454374
0.00453308
0.00432803
0.00273509
0.000346575
0.00454293
0.00454367
0.0045437
0.00454366
0.00454368
0.00454372
0.00454368
0.00454345
0.00453442
0.00435035
0.00281639
0.000361062
0.00441792
0.00440101
0.004399
0.00439885
0.0043987
0.00439868
0.00439883
0.00439885
0.00439162
0.00423217
0.00282335
0.000375965
0.00379106
0.00376552
0.00376176
0.00376134
0.00376082
0.00376069
0.00376094
0.00376131
0.00375624
0.0036385
0.00257156
0.000388195
0.00231797
0.00228789
0.00228342
0.00228278
0.00228105
0.00228151
0.00228205
0.00228318
0.00228225
0.00224232
0.0017941
0.000380096
0.00084986
0.000837309
0.000835659
0.000834952
0.000832806
0.000833656
0.000833905
0.000834492
0.000834825
0.000830273
0.000756967
0.000336954
9.89843e-05
9.89475e-05
9.8726e-05
9.85183e-05
9.79756e-05
9.76746e-05
9.76853e-05
9.72754e-05
9.70746e-05
9.69655e-05
9.52863e-05
8.33021e-05
0.000335812
0.0026002
0.00422045
0.00450629
0.00453795
0.00454089
0.00454128
0.00454135
0.0045412
0.00454129
0.00454124
0.00454108
0.000300201
0.00246139
0.00417897
0.00450193
0.00453818
0.00454155
0.00454198
0.00454191
0.00454191
0.00454201
0.00454187
0.00454175
0.000307386
0.00249076
0.00418983
0.00450414
0.00453889
0.00454226
0.00454249
0.00454252
0.00454264
0.00454277
0.0045426
0.00454239
0.000319358
0.00256125
0.00421779
0.00450879
0.00453985
0.00454289
0.00454304
0.00454305
0.00454308
0.00454323
0.00454318
0.004543
0.000333108
0.0026414
0.00424847
0.00451378
0.00454091
0.00454344
0.00454365
0.00454355
0.00454358
0.00454368
0.00454362
0.0045435
0.000347106
0.00272228
0.00427786
0.00451841
0.00454185
0.00454394
0.00454415
0.00454396
0.00454412
0.00454409
0.00454402
0.00454393
0.000361653
0.00280123
0.00430383
0.00452172
0.00454194
0.00454367
0.0045438
0.00454361
0.00454378
0.00454367
0.00454365
0.00454358
0.00037632
0.00281573
0.00419342
0.00438179
0.00439879
0.00440036
0.00440049
0.00440046
0.00440056
0.00440052
0.00440038
0.00440007
0.000389011
0.00257116
0.00361544
0.00375175
0.00376431
0.00376596
0.00376635
0.00376641
0.0037664
0.00376645
0.00376614
0.00376857
0.000382191
0.00180292
0.00223691
0.00228502
0.00228999
0.00229111
0.00229179
0.00229219
0.00229269
0.00229253
0.00229149
0.00229181
0.000338963
0.000761593
0.000831088
0.000837935
0.000838968
0.000839598
0.000840213
0.000840207
0.000841332
0.000841675
0.00084015
0.000839323
8.3434e-05
9.52816e-05
9.68175e-05
9.69898e-05
9.71262e-05
9.72918e-05
9.77833e-05
9.79452e-05
9.83414e-05
9.89609e-05
9.85897e-05
9.818e-05
0.00453997
0.0045409
0.004541
0.004541
0.00454117
0.00454108
0.00454122
0.00454086
0.00452658
0.0042818
0.00258516
0.00033685
0.0045407
0.00454157
0.00454166
0.0045416
0.00454185
0.00454177
0.00454192
0.00454143
0.00452406
0.00423943
0.00244811
0.000298751
0.00454138
0.00454224
0.00454228
0.00454223
0.00454245
0.00454246
0.00454252
0.00454204
0.00452536
0.0042489
0.00248561
0.000306402
0.00454195
0.00454288
0.00454288
0.00454294
0.00454295
0.004543
0.00454307
0.0045427
0.00452797
0.0042743
0.00256363
0.000319896
0.00454247
0.00454338
0.00454338
0.00454352
0.00454344
0.00454349
0.00454358
0.00454329
0.00453067
0.00430189
0.00264877
0.00033287
0.00454299
0.0045439
0.00454391
0.004544
0.00454393
0.00454393
0.00454406
0.0045438
0.00453308
0.0043277
0.00273341
0.000347097
0.00454289
0.00454364
0.00454362
0.00454369
0.00454361
0.00454357
0.0045437
0.00454347
0.00453439
0.00435006
0.00281454
0.000361268
0.00441797
0.00440111
0.00439927
0.00439903
0.00439889
0.00439888
0.004399
0.00439895
0.00439174
0.00423205
0.00282145
0.000376036
0.00379121
0.00376584
0.0037624
0.00376167
0.00376131
0.00376115
0.00376138
0.00376162
0.00375663
0.00363878
0.00257023
0.000387922
0.00231806
0.00228811
0.00228373
0.00228195
0.00228175
0.00228154
0.00228222
0.00228319
0.00228246
0.00224288
0.00179408
0.000380401
0.000850106
0.00083743
0.000835571
0.000833298
0.00083324
0.000833201
0.000833595
0.00083444
0.000834806
0.00083072
0.000757731
0.00033791
9.91234e-05
9.92005e-05
9.89515e-05
9.82625e-05
9.79118e-05
9.79259e-05
9.75782e-05
9.72894e-05
9.70746e-05
9.68989e-05
9.52239e-05
8.32314e-05
0.000336239
0.00260106
0.00422101
0.00450624
0.00453793
0.00454105
0.0045412
0.00454154
0.00454118
0.00454115
0.00454105
0.00454094