/*--------------------------------*- C++ -*----------------------------------*\
  =========                 |
  \\      /  F ield         | OpenFOAM: The Open Source CFD Toolbox
   \\    /   O peration     | Website:  https://openfoam.org
    \\  /    A nd           | Version:  6
     \\/     M anipulation  |
\*---------------------------------------------------------------------------*/
FoamFile
{
    version     2.0;
    format      ascii;
    class       volScalarField;
    location    "1000";
    object      p;
}
// * * * * * * * * * * * * * * * * * * * * * * * * * * * * * * * * * * * * * //

dimensions      [0 2 -2 0 0 0 0];

internalField   nonuniform List<scalar> 
3072
(
0.403756
0.906111
1.58734
2.29709
3.03235
3.76892
4.50366
5.22658
5.94369
6.65003
7.35312
8.04887
0.265584
0.842719
1.53573
2.26233
3.02167
3.77927
4.52352
5.25008
5.9641
6.66587
7.36085
8.04927
0.126015
0.749476
1.45579
2.19531
2.98408
3.77357
4.53885
5.27603
5.99053
6.68709
7.37174
8.0484
0.0620072
0.727406
1.45305
2.21093
3.02049
3.82625
4.59954
5.33649
6.04316
6.7264
7.39357
8.05073
0.0867789
0.796602
1.54596
2.32595
3.14822
3.95435
4.71905
5.44084
6.12757
6.78717
7.42841
8.05818
0.202035
0.956523
1.72914
2.52767
3.35128
4.14455
4.88644
5.58135
6.23749
6.86552
7.47361
8.07038
0.409667
1.20875
2.00187
2.80874
3.62116
4.38596
5.09334
5.74974
6.36757
6.9566
7.52681
8.08562
0.717983
1.56074
2.36597
3.16777
3.9498
4.67141
5.33059
5.93968
6.51136
7.05676
7.58482
8.10299
1.13892
2.02209
2.82621
3.60007
4.32988
4.99051
5.58988
6.14312
6.6636
7.16175
7.64563
8.12155
1.71029
2.62047
3.38983
4.10031
4.75006
5.33203
5.86087
6.35224
6.81828
7.26767
7.70684
8.14061
2.49899
3.39219
4.05976
4.65614
5.195
5.68232
6.13298
6.55935
6.97004
7.37097
7.76652
8.15946
3.72045
4.37942
4.82631
5.24344
5.6433
6.02582
6.39562
6.75731
7.11407
7.46859
7.82275
8.17731
8.7455
9.43998
10.14
10.8425
11.555
12.2738
13.0047
13.7422
14.48
15.1943
15.8709
16.3707
8.73673
9.42381
10.1159
10.8134
11.522
12.2429
12.9821
13.7403
14.5075
15.2425
15.9331
16.5069
8.7225
9.39754
10.0787
10.7697
11.4766
12.2049
12.9623
13.7529
14.5571
15.3118
16.02
16.6414
8.70425
9.35956
10.0229
10.6997
11.3975
12.1237
12.8877
13.6942
14.5229
15.3014
16.034
16.6987
8.684
9.31202
9.94931
10.6025
11.2799
11.9904
12.7443
13.5491
14.3898
15.1937
15.953
16.6624
8.66267
9.25782
9.86242
10.4841
11.1312
11.814
12.5436
13.332
14.1702
14.9915
15.7715
16.5263
8.6407
9.19817
9.76524
10.3484
10.9572
11.6008
12.2939
13.0488
13.8665
14.6916
15.4895
16.2845
8.6177
9.13475
9.65998
10.2
10.7625
11.3584
12.0005
12.7059
13.4847
14.2949
15.0951
15.9286
8.59471
9.06961
9.55093
10.0439
10.5554
11.0947
11.6753
12.3149
13.0285
13.7963
14.5793
15.4379
8.5724
9.00517
9.44193
9.88635
10.3437
10.8214
11.3308
11.888
12.5131
13.1982
13.9165
14.7732
8.55139
8.94334
9.33647
9.73278
10.1354
10.5491
10.9816
11.4443
11.9519
12.5089
13.0927
13.848
8.53194
8.88547
9.23723
9.58747
9.93708
10.2881
10.6427
11.0044
11.3768
11.7514
12.0961
12.5424
-0.0190443
0.472002
1.15404
1.87985
2.635
3.39219
4.14569
4.88542
5.61613
6.3335
7.04456
7.74677
-0.159429
0.408035
1.10089
1.84417
2.62628
3.40663
4.17111
4.91508
5.643
6.35573
7.05884
7.75357
-0.260274
0.358792
1.06436
1.81721
2.62671
3.43764
4.22186
4.975
5.70197
6.40827
7.10006
7.78218
-0.278666
0.385063
1.11331
1.88588
2.71617
3.54193
4.33244
5.08302
5.80026
6.49123
7.16411
7.82527
-0.211512
0.497555
1.2518
2.0486
2.89061
3.71661
4.49642
5.23053
5.92586
6.59186
7.23731
7.87007
-0.0595311
0.695334
1.47581
2.29001
3.13475
3.94493
4.70155
5.4067
6.07057
6.70359
7.31506
7.9136
0.183101
0.983637
1.78412
2.60806
3.43849
4.21991
4.93966
5.60559
6.22972
6.82306
7.3955
7.95542
0.51976
1.36435
2.17982
2.99857
3.79799
4.53411
5.20457
5.82168
6.39884
6.94745
7.47685
7.99497
0.96646
1.85334
2.66867
3.45949
4.20545
4.87925
5.48831
6.04841
6.57321
7.0735
7.55759
8.03225
1.56046
2.47616
3.25872
3.98588
4.65077
5.24431
5.7814
6.27831
6.74746
7.19778
7.63595
8.06709
2.37332
3.27432
3.9545
4.56638
5.11898
5.61622
6.07365
6.50416
6.91671
7.31734
7.71052
8.09939
3.62419
4.28928
4.74702
5.17785
5.58915
5.97965
6.35458
6.71904
7.07643
7.4294
7.77977
8.1288
8.44796
9.14646
9.8501
10.557
11.2747
12.0003
12.7395
13.4867
14.2355
14.9606
15.6454
16.1492
8.44564
9.1366
9.83223
10.5339
11.2478
11.9755
12.7231
13.4916
14.2716
15.0195
15.7194
16.297
8.4602
9.13851
9.82271
10.5172
11.2287
11.963
12.7284
13.5291
14.346
15.1125
15.8274
16.4509
8.48179
9.13942
9.80489
10.4843
11.1855
11.9165
12.6869
13.5017
14.3406
15.1271
15.8636
16.5288
8.49774
9.12733
9.76576
10.4208
11.1
11.8144
12.5718
13.3843
14.231
15.0408
15.802
16.5111
8.50717
9.10248
9.70803
10.3294
10.9787
11.6616
12.3962
13.187
14.0313
14.8566
15.6364
16.3906
8.51039
9.06765
9.63375
10.2169
10.8248
11.4699
12.1636
12.9224
13.7439
14.5696
15.3682
16.1611
8.50864
9.02417
9.54766
10.086
10.6474
11.2427
11.8858
12.5928
13.3726
14.1859
14.9828
15.8151
8.50315
8.97532
9.45364
9.94389
10.4532
10.9914
11.5715
12.2115
12.9269
13.693
14.4765
15.3339
8.4953
8.92396
9.35651
9.79712
10.2513
10.7271
11.2354
11.7923
12.4168
13.1048
13.8225
14.6797
8.48626
8.87266
9.26037
9.65175
10.0504
10.4614
10.8922
11.354
11.8625
12.4203
13.0095
13.7679
8.47677
8.82334
9.16845
9.5128
9.85778
10.2053
10.5578
10.9183
11.2908
11.671
12.0237
12.4781
0.408082
0.910585
1.59205
2.30219
3.03778
3.77473
4.50979
5.23309
5.95049
6.65719
7.36052
8.05658
0.269454
0.846703
1.54001
2.26706
3.02683
3.78486
4.5295
5.25644
5.97082
6.67296
7.36823
8.05694
0.129084
0.752571
1.45906
2.19898
2.98827
3.77833
4.54413
5.28181
5.99676
6.69377
7.3788
8.05579
0.0642132
0.729599
1.45527
2.21342
3.02351
3.82997
4.60393
5.3415
6.04872
6.73249
7.40013
8.05773
0.0881224
0.797893
1.54722
2.32738
3.15023
3.95717
4.72268
5.44519
6.13256
6.79275
7.43452
8.06481
0.202501
0.95693
1.72954
2.52816
3.35246
4.14665
4.88947
5.58517
6.24204
6.87068
7.47938
8.07667
0.409189
1.20832
2.00148
2.80847
3.62168
4.38757
5.09595
5.75327
6.37183
6.96153
7.53231
8.09168
0.716718
1.55954
2.36493
3.16692
3.94997
4.67281
5.33309
5.94312
6.51557
7.06161
7.5902
8.10886
1.13681
2.02012
2.8246
3.5989
4.33001
4.992
5.59249
6.14667
6.66791
7.16664
7.65097
8.12727
1.70753
2.61782
3.38782
4.09918
4.75052
5.33384
5.86377
6.35604
6.82278
7.27267
7.7122
8.1462
2.49541
3.38911
4.05784
4.65558
5.19603
5.6846
6.1363
6.56349
6.97479
7.37614
7.77189
8.16493
3.71542
4.3764
4.82477
5.24363
5.64495
6.02866
6.39942
6.76184
7.11911
7.47391
7.82814
8.18266
8.75345
9.44828
10.1486
10.8516
11.5645
12.2839
13.0154
13.7536
14.4921
15.2071
15.8843
16.3843
8.74466
9.43209
10.1245
10.8224
11.5315
12.2531
12.993
13.7519
14.5201
15.256
15.9473
16.5214
8.73023
9.40569
10.0873
10.7787
11.4863
12.2155
12.9738
13.7656
14.571
15.3268
16.0358
16.6574
8.71169
9.3675
10.0314
10.7088
11.4076
12.1348
12.9
13.7079
14.5383
15.3181
16.0516
16.7165
8.69113
9.31972
9.95765
10.6117
11.2901
12.0018
12.7572
13.5638
14.4065
15.2122
15.9724
16.6821
8.66952
9.26521
9.87053
10.4931
11.1413
11.8255
12.557
13.3476
14.1884
15.0118
15.7928
16.5478
8.64724
9.20527
9.77302
10.3572
10.9671
11.6124
12.3076
13.0652
13.8859
14.7137
15.5128
16.308
8.624
9.14154
9.66742
10.2084
10.7722
11.3699
12.0144
12.7229
13.5054
14.319
15.1207
15.9545
8.60078
9.07609
9.558
10.0519
10.5648
11.1061
11.6893
12.3322
13.0501
13.8224
14.6074
15.4663
8.57823
9.01133
9.44862
9.89395
10.3527
10.8325
11.3446
11.9055
12.5354
13.2263
13.9475
14.8048
8.55696
8.94913
9.34273
9.73992
10.1439
10.5598
10.9952
11.4618
11.9748
12.5387
13.127
13.8839
8.53726
8.89088
9.24303
9.5941
9.94513
10.2982
10.6558
11.0216
11.3997
11.7821
12.1345
12.5854
0.385826
0.887566
1.56631
2.27323
3.004
3.73573
4.4638
5.17917
5.88662
6.58212
7.27273
7.9559
0.250683
0.827116
1.51792
2.24139
2.9963
3.7488
4.48657
5.2054
5.9098
6.60054
7.28321
7.95894
0.115491
0.738429
1.44319
2.17998
2.96482
3.74925
4.50822
5.23765
5.94281
6.62876
7.30183
7.9665
0.0549468
0.720149
1.44492
2.20117
3.00803
3.80954
4.57715
5.30666
6.00456
6.6778
7.33436
7.98049
0.0830544
0.792577
1.54108
2.32073
3.14045
3.9442
4.70339
5.41884
6.09712
6.74773
7.37899
7.99888
0.200631
0.955198
1.72821
2.52501
3.34857
4.13815
4.87638
5.56471
6.21378
6.83311
7.43247
8.01966
0.414983
1.21403
2.00621
2.81183
3.62187
4.38447
5.08735
5.73846
6.34926
6.93074
7.49239
8.0426
0.727878
1.57115
2.37612
3.1765
3.95652
4.67505
5.33013
5.93377
6.49907
7.03712
7.55707
8.06665
1.15678
2.04066
2.8445
3.61584
4.34307
5.0004
5.59529
6.14312
6.65727
7.14817
7.62391
8.09106
1.73662
2.64767
3.41552
4.12352
4.77036
5.3485
5.87249
6.35826
6.8178
7.25975
7.69051
8.11504
2.53587
3.42898
4.09402
4.6868
5.22236
5.70537
6.15086
6.57129
6.97518
7.36831
7.75487
8.13795
3.76718
4.42527
4.86765
5.28155
5.67762
6.05541
6.41972
6.7751
7.1247
7.47088
7.81532
8.1593
8.63945
9.32148
10.0099
10.7027
11.4074
12.121
12.8492
13.5863
14.3259
15.0432
15.7227
16.2245
8.63347
9.30814
9.98874
10.6765
11.3776
12.0933
12.8299
13.5879
14.3578
15.0969
15.7913
16.3673
8.62852
9.29196
9.96252
10.6443
11.3443
12.0676
12.8229
13.6136
14.4208
15.1794
15.8905
16.5132
8.62316
9.26804
9.92177
10.5904
11.2816
12.0035
12.7652
13.5719
14.4031
15.1839
15.9178
16.5827
8.61461
9.23334
9.86171
10.5076
11.1785
11.8853
12.6359
13.442
14.2832
15.0889
15.8486
16.5575
8.60311
9.18893
9.78601
10.3996
11.042
11.7188
12.4482
13.2343
14.0748
14.8974
15.6767
16.431
8.58864
9.13783
9.69662
10.2733
10.8756
11.516
12.2058
12.9614
13.7806
14.6051
15.4033
16.1969
8.57255
9.08109
9.59837
10.1314
10.6884
11.2801
11.9205
12.6257
13.4044
14.2171
15.0147
15.8476
8.5552
9.02135
9.4945
9.98045
10.4863
11.022
11.6005
12.2396
12.9549
13.7216
14.5056
15.364
8.53739
8.96093
9.38927
9.8265
10.2783
10.7523
11.2597
11.8166
12.4417
13.1308
13.8498
14.7076
8.51979
8.90198
9.28631
9.6752
10.0722
10.4822
10.9126
11.3748
11.8844
12.4442
13.0347
13.7939
8.50303
8.8462
9.18872
9.53132
9.87523
10.2223
10.5748
10.936
11.3099
11.6919
12.0469
12.5021
6.17166
5.5789
5.62129
5.81386
6.06696
6.34665
6.63968
6.94059
7.24706
7.55843
7.87437
8.19386
7.32056
6.48177
6.27519
6.30297
6.43912
6.63228
6.85846
7.10531
7.36653
7.63885
7.92025
8.20839
7.77323
7.05457
6.76281
6.69598
6.75117
6.87794
7.04929
7.25003
7.47162
7.70924
7.95999
8.22085
7.97854
7.41101
7.115
7.00263
7.00617
7.08448
7.21244
7.37478
7.56216
7.76931
7.99287
8.23002
8.51452
8.83276
9.14625
9.45366
9.75416
10.0466
10.3285
10.594
10.8283
10.9937
10.9661
10.3155
8.49929
8.78597
9.06477
9.33342
9.58979
9.83044
10.0494
10.2347
10.3629
10.3823
10.1749
9.43945
8.48684
8.74578
8.99352
9.22768
9.44535
9.64187
9.80938
9.93365
9.98889
9.92919
9.66584
9.02998
8.47788
8.71273
8.93278
9.13651
9.32074
9.48043
9.6071
9.68682
9.69633
9.59767
9.33294
8.81512
6.12369
5.52135
5.56919
5.77176
6.03327
6.31881
6.61532
6.91772
7.22365
7.53225
7.84303
8.15534
7.30825
6.45455
6.24926
6.28251
6.42404
6.62096
6.84917
7.09631
7.35595
7.62437
7.8993
8.17866
7.78513
7.0533
6.75911
6.6946
6.75272
6.88153
7.05364
7.25366
7.47276
7.70555
7.94863
8.1991
8.00843
7.42973
7.12996
7.01757
7.02223
7.10125
7.2289
7.38969
7.57387
7.77551
7.99045
8.21586
8.46773
8.77756
9.0832
9.38389
9.679
9.96747
10.2466
10.5107
10.7463
10.9162
10.9029
10.2763
8.45957
8.73636
9.00623
9.26739
9.51776
9.75397
9.96978
10.1535
10.282
10.3077
10.1133
9.40175
8.45311
8.70059
8.93839
9.16437
9.37556
9.5672
9.73117
9.85333
9.9089
9.85328
9.60215
8.98543
8.44912
8.67092
8.88015
9.07514
9.25253
9.40697
9.52983
9.607
9.616
9.52107
9.26497
8.76225
6.16492
5.57603
5.62019
5.81462
6.06921
6.35005
6.64395
6.94549
7.25237
7.56391
7.87979
8.19907
7.31326
6.4781
6.27441
6.30426
6.44192
6.6362
6.86318
7.11058
7.37212
7.6445
7.9257
8.21347
7.76731
7.05173
6.76264
6.6978
6.75448
6.88233
7.05443
7.25567
7.4775
7.71507
7.96547
8.22578
7.97411
7.40924
7.11555
7.00501
7.00997
7.08932
7.218
7.38078
7.56832
7.77532
7.99841
8.23484
8.51955
8.83777
9.15157
9.45975
9.76159
10.0561
10.3409
10.6106
10.8507
11.0242
11.0076
10.3718
8.50401
8.79056
9.06958
9.33894
9.59657
9.83919
10.061
10.2503
10.384
10.4114
10.2154
9.49534
8.49121
8.74989
8.99779
9.2326
9.45143
9.64978
9.81991
9.94788
10.0082
9.95546
9.70198
9.07823
8.48188
8.71632
8.93647
9.14078
9.32608
9.48742
9.61647
9.69949
9.71344
9.62077
9.3637
8.85486
6.23341
5.63342
5.67036
5.85884
6.10775
6.38249
6.66973
6.96404
7.26294
7.56536
7.87081
8.17869
7.38991
6.54214
6.33038
6.35414
6.48594
6.67403
6.89423
7.13425
7.38751
7.65029
7.92035
8.19585
7.84789
7.12076
6.82371
6.75256
6.80343
6.9251
7.09043
7.28417
7.4975
7.72507
7.96363
8.21059
8.05702
7.48195
7.18051
7.06399
7.06331
7.1366
7.25858
7.41385
7.59279
7.78951
8.00006
8.22239
8.48761
8.79483
9.09865
9.39822
9.69278
9.9812
10.2607
10.5257
10.7624
10.9341
10.9223
10.2956
8.47396
8.74885
9.01759
9.27818
9.52845
9.7649
9.98127
10.1658
10.2954
10.3222
10.1283
9.41472
8.46253
8.70885
8.94615
9.17206
9.38351
9.57562
9.74026
9.86322
9.91964
9.8647
9.61326
8.9951
8.45411
8.6755
8.88481
9.08019
9.25812
9.41322
9.5368
9.61473
9.62439
9.5298
9.27336
8.76919
8.08469
7.6398
7.36865
7.23955
7.2123
7.25637
7.35075
7.48145
7.63955
7.81984
8.01897
8.23595
8.14433
7.79163
7.5532
7.42278
7.37829
7.39855
7.46703
7.57167
7.70457
7.8609
8.03763
8.23435
8.1818
7.89675
7.68965
7.56489
7.51143
7.51524
7.56368
7.64685
7.75783
7.89238
8.04599
8.22046
8.20714
7.97213
7.79229
7.67587
7.61836
7.61072
7.64355
7.70878
7.80032
7.91388
8.04106
8.17948
8.47422
8.68778
8.88298
9.05988
9.21544
9.34466
9.43951
9.48737
9.4687
9.35568
9.1102
8.69391
8.47919
8.67185
8.84386
8.99686
9.12774
9.23178
9.30185
9.32706
9.29197
9.17583
8.95657
8.61962
8.4968
8.66598
8.81454
8.94571
9.05508
9.13826
9.18899
9.19822
9.15388
9.04169
8.84817
8.57203
8.53815
8.67292
8.79483
8.90505
8.99531
9.06099
9.09645
9.09434
9.04536
8.93946
8.77001
8.54047
8.12855
7.67426
7.39853
7.26842
7.2411
7.28488
7.37813
7.50663
7.66103
7.83536
8.02557
8.22952
8.19914
7.8385
7.59574
7.4634
7.41808
7.43729
7.50403
7.60597
7.73485
7.88523
8.05323
8.23653
8.24557
7.95382
7.74241
7.61566
7.56088
7.56312
7.60937
7.68948
7.79631
7.92513
8.07105
8.23348
8.27815
8.03758
7.85396
7.73525
7.67609
7.66656
7.69684
7.75879
7.84614
7.95439
8.07544
8.2053
8.44923
8.64815
8.83186
8.99967
9.14813
9.27189
9.36263
9.4076
9.38791
9.27676
9.03842
8.6335
8.45615
8.63315
8.79345
8.93725
9.06089
9.15935
9.2251
9.24715
9.21035
9.09546
8.88089
8.5527
8.47236
8.6267
8.76399
8.88606
8.98822
9.06578
9.11207
9.11789
9.07142
8.95923
8.76931
8.49983
8.50788
8.63179
8.74359
8.84499
8.92817
8.98823
9.01924
9.01353
8.96205
8.85564
8.68826
8.46368
8.08187
7.63914
7.36998
7.24254
7.2166
7.26165
7.3567
7.4878
7.646
7.82607
8.02462
8.24065
8.1428
7.79196
7.55528
7.42637
7.3831
7.40427
7.47336
7.57836
7.71132
7.86739
8.04346
8.23907
8.18155
7.89805
7.69248
7.56908
7.51674
7.52138
7.5704
7.65388
7.76491
7.89919
8.05214
8.22534
8.20793
7.97429
7.7958
7.68062
7.62412
7.61727
7.65063
7.71615
7.80774
7.92106
8.04766
8.18497
8.47775
8.69079
8.88604
9.06344
9.21997
9.35066
9.4476
9.4983
9.4834
9.37511
9.13564
8.72584
8.48213
8.67419
8.84623
8.9997
9.13143
9.23676
9.30862
9.33622
9.30419
9.19191
8.97703
8.64472
8.49898
8.66753
8.81618
8.94778
9.0579
9.14218
9.19441
9.20559
9.16369
9.05436
8.86421
8.59137
8.5394
8.67362
8.79571
8.90636
8.99727
9.06387
9.10056
9.09999
9.05289
8.94921
8.78208
8.55483
8.16616
7.71452
7.43822
7.3051
7.27376
7.31299
7.40148
7.52516
7.67477
7.84438
8.03028
8.23097
8.22807
7.86936
7.62617
7.49196
7.44361
7.45921
7.52195
7.61971
7.7442
7.89
8.05337
8.23346
8.26745
7.97704
7.76555
7.63728
7.58019
7.57954
7.62246
7.69893
7.80174
7.92607
8.06724
8.22582
8.29423
8.05455
7.87073
7.75104
7.69011
7.67826
7.7058
7.76461
7.84833
7.95228
8.06837
8.19526
8.45002
8.64934
8.83376
9.00235
9.15159
9.27614
9.36764
9.41331
9.39416
9.28321
9.04438
8.63838
8.45277
8.63127
8.79298
8.93791
9.06253
9.16187
9.22842
9.25112
9.21477
9.09998
8.88504
8.55575
8.46544
8.62207
8.7614
8.88491
8.98819
9.06668
9.11378
9.12022
9.07416
8.96205
8.77173
8.50145
8.49891
8.62513
8.7393
8.84234
8.92671
8.98773
9.01953
9.01444
8.96333
8.85698
8.68932
8.46394
8.22491
8.0276
7.8706
7.76315
7.70442
7.68881
7.7094
7.75955
7.83374
7.92662
8.02368
8.09634
8.23804
8.06944
7.93127
7.83243
7.77404
7.75281
7.76367
7.80111
7.85996
7.93396
8.00713
8.05273
8.24773
8.10149
7.9788
7.88774
7.83052
7.80532
7.80843
7.83525
7.8809
7.93901
7.99454
8.02565
8.25531
8.12651
8.01649
7.93231
7.87662
7.84859
7.84546
7.86339
7.89782
7.9427
7.98514
8.00702
8.26101
8.14619
8.04661
7.96834
7.91435
7.88424
7.87614
7.88668
7.91179
7.94583
7.97792
7.99399
8.26569
8.16191
8.07089
7.99773
7.94536
7.91382
7.90162
7.90609
7.92332
7.9485
7.97258
7.98434
8.26935
8.17442
8.09061
8.02165
7.97088
7.93826
7.92277
7.92228
7.93295
7.95099
7.96853
7.97747
8.27237
8.18452
8.10662
8.04121
7.9919
7.95848
7.94034
7.93573
7.94099
7.95314
7.96558
7.9723
8.27493
8.19211
8.11918
8.05633
8.00832
7.97441
7.95402
7.94655
7.9472
7.95515
7.96329
7.96873
8.27617
8.19753
8.12719
8.06654
8.01922
7.98492
7.96338
7.95346
7.95166
7.95619
7.96189
7.96605
8.27683
8.20054
8.13157
8.07215
8.02512
7.99067
7.96843
7.95724
7.95408
7.95679
7.96111
7.96445
8.27701
8.20174
8.13322
8.07429
8.02731
7.9928
7.97035
7.95866
7.9551
7.95712
7.96103
7.96405
8.62008
8.69048
8.78341
8.87328
8.94649
8.99741
9.02081
9.01057
8.95963
8.86136
8.71218
8.51845
8.66237
8.70677
8.77672
8.8484
8.90662
8.94502
8.95874
8.9426
8.89132
8.80026
8.66868
8.50276
8.68872
8.71874
8.77218
8.82864
8.87401
8.90197
8.90788
8.88746
8.83663
8.75254
8.63516
8.4911
8.70676
8.72786
8.76886
8.81273
8.84723
8.86639
8.86599
8.84234
8.79245
8.71427
8.60907
8.48236
8.71956
8.73481
8.76622
8.7998
8.82522
8.83707
8.83154
8.80546
8.75663
8.68376
8.5883
8.47555
8.729
8.7402
8.7641
8.78921
8.80707
8.81275
8.80307
8.77499
8.72734
8.65868
8.57162
8.47021
8.736
8.74439
8.76238
8.78055
8.79216
8.79265
8.77967
8.74983
8.70343
8.63811
8.5579
8.46587
8.74132
8.74779
8.76106
8.77352
8.7799
8.7761
8.76033
8.72914
8.68368
8.62109
8.54656
8.46231
8.74534
8.7506
8.76023
8.76807
8.77058
8.76299
8.74565
8.71253
8.66876
8.6071
8.5376
8.45951
8.74831
8.75277
8.75968
8.76459
8.76403
8.75465
8.73512
8.70216
8.65777
8.59845
8.53129
8.45746
8.75017
8.7539
8.75923
8.76246
8.76035
8.74989
8.72935
8.69636
8.65173
8.59376
8.52798
8.45615
8.75073
8.75411
8.75888
8.76155
8.75892
8.74815
8.72722
8.69433
8.64949
8.59234
8.527
8.45561
8.30213
8.10012
7.93959
7.83008
7.76956
7.75182
7.76964
7.81634
7.88631
7.97423
8.06666
8.13689
8.32037
8.14798
8.00682
7.90582
7.84557
7.82204
7.82997
7.86383
7.91848
7.98776
8.05682
8.10077
8.33459
8.18522
8.05982
7.96694
7.90782
7.88025
7.8803
7.90347
7.94491
7.99839
8.04989
8.07942
8.34588
8.21474
8.10252
8.01657
7.95893
7.92847
7.92217
7.93641
7.96666
8.007
8.04548
8.06577
8.35495
8.23837
8.13694
8.05727
8.00127
7.96873
7.95733
7.96417
7.98508
8.01468
8.04276
8.05727
8.36234
8.25759
8.16529
8.0909
8.03635
8.00233
7.98674
7.98744
8.00058
8.02133
8.04142
8.05154
8.36839
8.27331
8.18862
8.11908
8.06561
8.03065
8.01147
8.00722
8.01386
8.02746
8.04099
8.04815
8.37332
8.28626
8.20815
8.14247
8.09003
8.0543
8.03223
8.02385
8.02516
8.03292
8.04134
8.04599
8.37717
8.29644
8.22346
8.16165
8.10898
8.07342
8.04849
8.0373
8.03422
8.03761
8.04212
8.04488
8.37961
8.30313
8.23401
8.17349
8.12224
8.08547
8.05965
8.0459
8.04031
8.04073
8.04291
8.04432
8.38068
8.30662
8.23909
8.17936
8.12891
8.09156
8.06525
8.05017
8.04324
8.04212
8.04321
8.04407
8.38095
8.30775
8.24053
8.18101
8.13113
8.09353
8.06719
8.05163
8.04428
8.04259
8.0433
8.04409
8.57948
8.64629
8.73088
8.81237
8.87871
8.92412
8.94306
8.92913
8.87543
8.77589
8.62804
8.43803
8.6173
8.6598
8.72257
8.7864
8.83803
8.87109
8.8804
8.86057
8.80633
8.71372
8.58246
8.4191
8.64041
8.669
8.71609
8.76526
8.80442
8.82722
8.82885
8.80473
8.75086
8.66474
8.5472
8.40491
8.65564
8.67556
8.71078
8.74792
8.77658
8.79083
8.78628
8.75903
8.70604
8.62573
8.5197
8.39385
8.6658
8.67997
8.70606
8.73339
8.75342
8.7606
8.75113
8.72152
8.6696
8.59437
8.49772
8.38532
8.67286
8.68302
8.70186
8.72128
8.73406
8.73546
8.72195
8.6906
8.63985
8.56892
8.4802
8.37839
8.67756
8.68486
8.69802
8.71099
8.71792
8.71452
8.69785
8.66505
8.61548
8.54807
8.4658
8.37298
8.68078
8.68594
8.69459
8.70237
8.70449
8.69717
8.67791
8.64401
8.59546
8.531
8.45418
8.36857
8.68283
8.68642
8.69158
8.69551
8.69388
8.6835
8.66238
8.62738
8.57998
8.51743
8.4451
8.36515
8.68417
8.68652
8.68958
8.69085
8.68676
8.67447
8.65179
8.61657
8.5693
8.50877
8.43899
8.36303
8.68491
8.68654
8.68849
8.68834
8.68291
8.66957
8.64606
8.61073
8.56354
8.50413
8.43588
8.36173
8.68507
8.68649
8.68807
8.68741
8.68152
8.66781
8.64402
8.60869
8.56146
8.50259
8.43489
8.36124
8.22673
8.03058
7.87478
7.76845
7.71065
7.69575
7.71683
7.76726
7.8415
7.9342
8.03088
8.10299
8.24072
8.07315
7.93605
7.83822
7.78068
7.76011
7.77142
7.80912
7.86803
7.94193
8.01484
8.06012
8.25126
8.10592
7.98417
7.89403
7.83757
7.81297
7.8165
7.84355
7.88927
7.94731
8.00267
8.03354
8.25956
8.13157
8.02239
7.93903
7.88404
7.85655
7.8538
7.87195
7.90646
7.9513
7.99361
8.01533
8.26597
8.15189
8.05301
7.9755
7.92211
7.89251
7.88474
7.89548
7.92066
7.95468
7.98668
8.00262
8.27128
8.16815
8.07777
8.00527
7.95344
7.92234
7.91045
7.91509
7.93239
7.95755
7.98158
7.99323
8.2755
8.18123
8.09794
8.02959
7.97928
7.94705
7.93181
7.93146
7.94219
7.96021
7.97771
7.98656
8.279
8.19184
8.11435
8.04952
8.00057
7.9675
7.94956
7.94508
7.95038
7.96251
7.97491
7.98155
8.28193
8.19992
8.12727
8.065
8.01725
7.98363
7.96342
7.95601
7.95672
7.96461
7.97273
7.97808
8.2835
8.20557
8.13557
8.0754
8.02833
7.99428
7.97288
7.96302
7.96124
7.96572
7.97139
7.97549
8.28438
8.20864
8.14006
8.08106
8.0343
8.00006
7.97796
7.96682
7.96368
7.96635
7.97065
7.97393
8.28466
8.20983
8.14173
8.08318
8.03649
8.00218
7.97987
7.96824
7.96469
7.96668
7.97055
7.97353
8.62007
8.69035
8.78356
8.87383
8.94759
8.99924
9.0236
9.01454
8.96501
8.86826
8.7208
8.52861
8.66163
8.70598
8.7762
8.84823
8.90687
8.94586
8.9603
8.94502
8.89472
8.80475
8.6742
8.50926
8.68744
8.71744
8.77108
8.82778
8.87346
8.90182
8.90824
8.88839
8.83819
8.75471
8.63801
8.49448
8.70501
8.72611
8.76722
8.81123
8.84591
8.86533
8.86524
8.84192
8.79236
8.71451
8.60954
8.483
8.71741
8.73266
8.76409
8.79768
8.82317
8.83512
8.82973
8.80376
8.755
8.68215
8.5867
8.47384
8.7265
8.73769
8.7615
8.78653
8.80433
8.81
8.80027
8.77215
8.72434
8.65554
8.56817
8.46642
8.73318
8.74153
8.75933
8.77732
8.78876
8.78913
8.77594
8.74593
8.69916
8.63354
8.55287
8.46029
8.73822
8.7446
8.75759
8.76978
8.7759
8.77188
8.75576
8.72427
8.67828
8.6153
8.54014
8.45515
8.74199
8.74709
8.75635
8.76388
8.76599
8.75816
8.74026
8.70686
8.66232
8.60033
8.53003
8.45106
8.74475
8.749
8.75553
8.76006
8.7591
8.74936
8.7293
8.69589
8.65077
8.59098
8.52303
8.4482
8.74648
8.74999
8.75495
8.7578
8.75529
8.74443
8.72336
8.68986
8.64455
8.58605
8.51948
8.44662
8.74699
8.75017
8.75459
8.75688
8.75385
8.74265
8.72122
8.68779
8.64231
8.58458
8.51844
8.44605
8.31335
8.11188
7.95125
7.84083
7.77891
7.7593
7.77485
7.81888
7.88567
7.96963
8.05785
8.12593
8.32747
8.15533
8.01392
7.91229
7.85091
7.8259
7.83198
7.86364
7.91557
7.98151
8.04708
8.0899
8.33818
8.18883
8.0632
7.96965
7.9096
7.88083
7.87939
7.90078
7.94
7.99078
8.03977
8.06846
8.34646
8.21513
8.10254
8.01604
7.95763
7.92621
7.91875
7.93162
7.96014
7.99842
8.03497
8.05482
8.35293
8.23599
8.13415
8.05389
7.99719
7.96391
7.9516
7.95746
7.97704
8.00516
8.03197
8.0461
8.35806
8.2528
8.15998
8.08503
8.02987
7.99527
7.97902
7.97907
7.99129
8.01108
8.0303
8.04028
8.36213
8.26642
8.18115
8.11099
8.05694
8.02161
8.0019
7.99737
8.00333
8.01649
8.02956
8.03664
8.36535
8.27754
8.19876
8.13242
8.07944
8.04348
8.02103
8.0127
8.01356
8.02132
8.02954
8.03432
8.36777
8.28619
8.21249
8.15001
8.09678
8.06122
8.03585
8.02514
8.02158
8.0255
8.0299
8.03301
8.36932
8.29191
8.22204
8.1608
8.1091
8.07227
8.04628
8.03292
8.02723
8.02815
8.03047
8.03226
8.3701
8.2951
8.22678
8.16637
8.11552
8.07808
8.05172
8.03695
8.03011
8.0294
8.03069
8.03187
8.37036
8.29623
8.22821
8.16804
8.11778
8.08005
8.05371
8.03838
8.03119
8.02983
8.03078
8.03182
8.57023
8.63845
8.72527
8.8084
8.87594
8.92229
8.94201
8.92867
8.87534
8.77587
8.62774
8.43718
8.60816
8.65147
8.71605
8.78138
8.83414
8.86811
8.87817
8.8589
8.80503
8.71251
8.58108
8.41716
8.63134
8.66041
8.70886
8.7593
8.7995
8.82312
8.8255
8.8019
8.74841
8.6624
8.54471
8.40207
8.64655
8.66676
8.70298
8.74117
8.77074
8.78577
8.78191
8.75518
8.70258
8.62238
8.51629
8.39011
8.65661
8.67095
8.69778
8.7259
8.74676
8.75459
8.74583
8.71666
8.6652
8.59004
8.49337
8.38082
8.66353
8.67378
8.69312
8.71315
8.72665
8.72864
8.7158
8.68489
8.63459
8.56373
8.47506
8.37317
8.66808
8.67538
8.68889
8.70223
8.70986
8.70687
8.69096
8.65846
8.60946
8.542
8.45986
8.36712
8.67113
8.67621
8.68507
8.69304
8.69584
8.68879
8.67034
8.63664
8.58874
8.5241
8.44752
8.3621
8.67303
8.67641
8.68182
8.68562
8.68483
8.67439
8.65436
8.61919
8.5727
8.50965
8.43772
8.35818
8.6742
8.67637
8.67953
8.6808
8.67728
8.66513
8.64324
8.60809
8.56146
8.5006
8.43116
8.35569
8.67485
8.67636
8.67837
8.6783
8.67329
8.66021
8.6373
8.6022
8.55545
8.4959
8.42794
8.35421
8.67498
8.67633
8.67795
8.67742
8.67187
8.6585
8.6352
8.60018
8.55326
8.4944
8.42697
8.35364
)
;

boundaryField
{
    rotor
    {
        type            zeroGradient;
    }
    stator
    {
        type            zeroGradient;
    }
    front
    {
        type            empty;
    }
    back
    {
        type            empty;
    }
}


// ************************************************************************* //
