/*--------------------------------*- C++ -*----------------------------------*\
  =========                 |
  \\      /  F ield         | OpenFOAM: The Open Source CFD Toolbox
   \\    /   O peration     | Website:  https://openfoam.org
    \\  /    A nd           | Version:  6
     \\/     M anipulation  |
\*---------------------------------------------------------------------------*/
FoamFile
{
    version     2.0;
    format      ascii;
    class       volScalarField;
    location    "2000";
    object      epsilon;
}
// * * * * * * * * * * * * * * * * * * * * * * * * * * * * * * * * * * * * * //

dimensions      [0 2 -3 0 0 0 0];

internalField   nonuniform List<scalar> 
768
(
151.201
133.108
149.585
162.758
162.473
167.723
164.722
167.193
158.933
161.232
167.37
172.975
170.052
83.4839
72.9591
67.0278
62.8962
60.9192
59.5128
58.8777
58.1122
58.0823
58.3191
58.5156
151.127
72.6215
49.5078
37.6136
32.1391
29.8559
28.9289
28.5744
28.4139
28.3776
28.3958
28.4259
135.167
67.0114
42.1962
29.7663
24.4828
22.4339
21.6914
21.435
21.3477
21.3281
21.33
21.3373
129.416
64.775
39.3767
27.2259
22.315
20.5033
19.8818
19.682
19.6193
19.6024
19.5984
19.5998
123.367
62.3582
37.6151
26.013
21.4995
19.8972
19.3718
19.2069
19.1583
19.142
19.1406
19.1394
121.217
60.9068
36.3812
25.2301
21.0548
19.6318
19.1769
19.0416
18.9984
18.99
18.9852
18.9881
113.411
59.7322
35.5119
24.668
20.7536
19.4645
19.0664
18.9482
18.9127
18.9016
18.8984
18.8989
113.575
59.8642
35.1034
24.2979
20.5375
19.34
18.9808
18.8769
18.8481
18.8354
18.8324
18.8308
104.691
60.4328
35.033
24.0664
20.3769
19.2393
18.9069
18.8184
18.8
18.7821
18.7715
18.7686
104.59
63.6804
35.0694
23.7955
20.2045
19.1409
18.8371
18.7656
18.7537
18.7316
18.7227
18.7252
151.076
68.5385
33.5581
23.0167
19.9065
19.0134
18.7605
18.7058
18.7009
18.6815
18.6686
18.6699
169.106
169.355
161.824
159.255
164.191
169.895
164.522
160.601
153.213
139.24
115.698
141.238
58.3339
58.3082
57.9644
57.9134
58.1185
58.4118
58.4278
59.6203
63.9693
72.8452
91.7664
157.226
28.4285
28.4351
28.4182
28.4179
28.4375
28.5202
28.9007
30.5771
35.9468
48.5765
75.4793
152.613
21.3415
21.3466
21.3487
21.3533
21.3624
21.4164
21.7248
23.1089
27.7769
39.7785
66.7241
144.09
19.6002
19.6011
19.6012
19.6039
19.6104
19.6494
19.8859
20.9998
25.0234
36.1299
62.4953
135.665
19.1426
19.1417
19.1406
19.138
19.1418
19.17
19.3511
20.2509
23.7084
33.8744
59.0229
124.469
18.9899
18.9904
18.987
18.9866
18.9852
19.0061
19.145
19.8743
22.8553
32.1109
55.6799
120.042
18.9033
18.9049
18.9031
18.9003
18.9025
18.9216
19.0337
19.6311
22.2091
30.6999
53.2668
117.717
18.8303
18.8358
18.8378
18.8365
18.8386
18.8587
18.9518
19.4419
21.6801
29.4358
51.0232
119.736
18.7669
18.7732
18.7775
18.777
18.7797
18.7996
18.8809
19.2888
21.2109
28.2995
49.3276
119.237
18.7126
18.71
18.7204
18.7225
18.7229
18.7388
18.8125
19.15
20.769
27.1093
47.8192
124.72
18.6598
18.6515
18.661
18.6669
18.6671
18.6814
18.745
19.0068
20.2717
25.6861
47.2046
143.483
66.9616
41.9304
27.3314
21.4137
19.4516
18.8566
18.6812
18.6467
18.6477
18.6273
18.6218
18.6169
36.9953
28.5963
22.7797
20.043
19.0378
18.7103
18.6087
18.5951
18.6013
18.5784
18.5745
18.5804
25.2148
22.5833
20.3534
19.2082
18.7556
18.6004
18.5509
18.5463
18.5551
18.5367
18.5372
18.563
20.8494
20.0374
19.2177
18.7693
18.5842
18.5191
18.5068
18.5022
18.5052
18.5097
18.5433
18.6556
18.6128
18.6137
18.62
18.6275
18.6247
18.6331
18.6787
18.8511
19.6431
23.0811
36.4355
77.3268
18.5721
18.5658
18.5746
18.5849
18.5866
18.5889
18.6148
18.7157
19.121
20.7905
26.6371
41.4234
18.5505
18.5321
18.5309
18.5373
18.5438
18.547
18.5659
18.6164
18.7983
19.4897
21.6969
26.308
18.6643
18.5488
18.5034
18.4926
18.4857
18.4933
18.5125
18.5367
18.6144
18.8787
19.6566
21.106
19.2934
18.9943
18.706
18.5441
18.4747
18.4488
18.4407
18.4384
18.4427
18.4813
18.7072
19.2504
18.7217
18.6002
18.4935
18.4343
18.4079
18.3964
18.3923
18.3926
18.4137
18.5844
19.4559
21.3831
18.5007
18.4384
18.3947
18.3719
18.3616
18.3562
18.3543
18.359
18.4245
18.938
21.4437
26.7845
18.4031
18.3608
18.3394
18.3295
18.3253
18.3227
18.3221
18.3346
18.4797
19.5907
25.0125
40.2003
19.3091
18.7783
18.5187
18.4495
18.4365
18.4401
18.4511
18.4634
18.4976
18.6054
18.8872
19.3448
21.5298
19.58
18.6768
18.4448
18.4006
18.3971
18.4017
18.408
18.4231
18.4645
18.5634
18.711
27.0742
21.4738
19.0636
18.4824
18.3754
18.3609
18.3619
18.365
18.3711
18.3875
18.4212
18.4729
41.3676
24.9098
19.6773
18.5528
18.3579
18.33
18.3281
18.3296
18.332
18.3375
18.3497
18.3715
18.3507
18.3147
18.3016
18.297
18.2954
18.294
18.2943
18.3149
18.5427
20.2567
30.0584
90.5763
18.3146
18.2816
18.2717
18.2691
18.2686
18.2682
18.269
18.293
18.552
20.4491
30.4899
67.2495
18.2867
18.2549
18.2466
18.245
18.2451
18.245
18.2461
18.2693
18.5213
20.3796
30.0951
63.0145
18.2632
18.2332
18.2265
18.2257
18.226
18.2258
18.2265
18.2468
18.4748
20.2092
29.4917
61.6626
18.2531
18.225
18.2197
18.2195
18.2199
18.2194
18.22
18.237
18.4377
20.0274
28.8647
60.5044
18.3175
18.2999
18.2972
18.2978
18.2978
18.2974
18.2978
18.3117
18.4869
19.939
28.3369
59.6548
18.7155
18.721
18.7231
18.726
18.726
18.7263
18.7256
18.737
18.8904
20.2205
28.1308
58.8092
20.1454
20.1883
20.1992
20.2069
20.2064
20.2081
20.2043
20.2126
20.3456
21.5493
28.7464
57.6872
23.833
23.8858
23.8982
23.9161
23.9076
23.9157
23.8991
23.907
24.0061
25.0148
30.888
55.1914
30.2542
30.1431
30.1455
30.1456
30.1273
30.1275
30.0908
30.09
30.1317
30.7355
34.0604
49.0784
40.5611
40.4188
40.3646
40.3548
40.2537
40.2469
40.1217
40.1073
40.0413
40.1207
39.916
37.328
69.5326
69.234
68.9892
68.6796
68.3559
68.0158
67.6989
67.4025
67.1918
66.8175
63.1193
44.7798
89.4338
29.5141
20.3039
18.618
18.3413
18.3024
18.2983
18.2992
18.2996
18.302
18.3055
18.3177
67.8473
30.1224
20.5021
18.6284
18.3198
18.2766
18.2717
18.2721
18.2721
18.2726
18.2742
18.2824
63.6715
29.8308
20.4477
18.5967
18.2944
18.2526
18.2479
18.248
18.2481
18.2484
18.2477
18.2543
62.0649
29.3061
20.2899
18.5464
18.2685
18.2312
18.2271
18.227
18.227
18.2264
18.2262
18.2322
60.9392
28.743
20.1162
18.5035
18.2557
18.2237
18.2204
18.2198
18.2199
18.2188
18.2183
18.2239
59.9538
28.2509
20.027
18.5454
18.3259
18.2988
18.2956
18.2953
18.2948
18.2941
18.294
18.2989
59.1411
28.0534
20.2954
18.938
18.7425
18.7186
18.715
18.7145
18.7138
18.7139
18.714
18.7161
58.0754
28.6553
21.5946
20.3738
20.1989
20.1766
20.1707
20.1699
20.169
20.1711
20.1725
20.1725
55.5975
30.8149
25.0206
24.005
23.857
23.834
23.8275
23.8227
23.8276
23.8287
23.8343
23.8364
49.5229
34.1405
30.7177
30.0966
29.9946
29.9783
29.9771
29.9813
30.0005
29.9891
30.0015
30.0345
37.626
39.9364
40.051
39.9769
39.9405
39.9482
39.9806
40.0184
40.0948
40.0613
40.0749
40.1894
45.0026
63.2467
66.7743
67.1487
67.2504
67.4144
67.6585
67.83
68.1949
68.293
68.2409
68.3448
)
;

boundaryField
{
    rotor
    {
        Cmu             0.09;
        kappa           0.41;
        E               9.8;
        type            epsilonWallFunction;
        value           nonuniform List<scalar> 
48
(
151.201
133.108
149.585
162.758
162.473
167.723
164.722
167.193
158.933
161.232
167.37
172.975
169.106
169.355
161.824
159.255
164.191
169.895
164.522
160.601
153.213
139.24
115.698
141.238
151.201
170.052
151.127
135.167
129.416
123.367
121.217
113.411
113.575
104.691
104.59
151.076
141.238
157.226
152.613
144.09
135.665
124.469
120.042
117.717
119.736
119.237
124.72
143.483
)
;
    }
    stator
    {
        Cmu             0.09;
        kappa           0.41;
        E               9.8;
        type            epsilonWallFunction;
        value           nonuniform List<scalar> 
48
(
69.5326
69.234
68.9892
68.6796
68.3559
68.0158
67.6989
67.4025
67.1918
66.8175
63.1193
44.7798
45.0026
63.2467
66.7743
67.1487
67.2504
67.4144
67.6585
67.83
68.1949
68.293
68.2409
68.3448
89.4338
67.8473
63.6715
62.0649
60.9392
59.9538
59.1411
58.0754
55.5975
49.5229
37.626
45.0026
90.5763
67.2495
63.0145
61.6626
60.5044
59.6548
58.8092
57.6872
55.1914
49.0784
37.328
44.7798
)
;
    }
    front
    {
        type            empty;
    }
    back
    {
        type            empty;
    }
    procBoundary1to0
    {
        type            processor;
        value           nonuniform List<scalar> 
20
(
67.2914
37.106
25.2623
20.8668
19.2995
18.7233
18.5002
18.402
18.3487
18.3127
18.2843
18.2611
18.2506
18.3157
18.7144
20.1462
23.8383
30.2307
40.4339
69.0765
)
;
    }
    procBoundary1to3
    {
        type            processor;
        value           nonuniform List<scalar> 
20
(
77.8135
41.4425
26.2903
21.0982
19.3437
18.7131
18.4758
18.3747
18.3208
18.2852
18.257
18.2349
18.2267
18.3017
18.718
20.1724
23.833
30.0272
40.1971
68.6723
)
;
    }
}


// ************************************************************************* //
