/*--------------------------------*- C++ -*----------------------------------*\
  =========                 |
  \\      /  F ield         | OpenFOAM: The Open Source CFD Toolbox
   \\    /   O peration     | Website:  https://openfoam.org
    \\  /    A nd           | Version:  6
     \\/     M anipulation  |
\*---------------------------------------------------------------------------*/
FoamFile
{
    version     2.0;
    format      ascii;
    class       volScalarField;
    location    "2000";
    object      k;
}
// * * * * * * * * * * * * * * * * * * * * * * * * * * * * * * * * * * * * * //

dimensions      [0 2 -2 0 0 0 0];

internalField   nonuniform List<scalar> 
768
(
0.27931
0.43619
0.501096
0.545702
0.555167
0.570547
0.566682
0.570806
0.550787
0.552554
0.568039
0.583151
0.392134
0.709734
0.848069
0.904561
0.925218
0.935481
0.939492
0.942747
0.942473
0.943413
0.944404
0.946194
0.390191
0.76675
0.907982
0.953915
0.969286
0.97489
0.976837
0.97765
0.97778
0.977913
0.977953
0.978049
0.396309
0.789774
0.923332
0.962578
0.975093
0.979436
0.980879
0.981378
0.981504
0.981563
0.981496
0.981447
0.406093
0.802252
0.931047
0.965676
0.976368
0.97995
0.981068
0.981414
0.981459
0.981448
0.981398
0.981388
0.417034
0.815228
0.937519
0.967739
0.976727
0.979522
0.980388
0.980503
0.980518
0.980448
0.980436
0.980338
0.425632
0.830767
0.944959
0.970106
0.976929
0.978985
0.979419
0.979522
0.979395
0.979321
0.979098
0.979028
0.43108
0.845883
0.953636
0.97281
0.977262
0.978385
0.97852
0.978369
0.978129
0.977934
0.977845
0.977713
0.455034
0.860198
0.963373
0.976061
0.977754
0.977869
0.977529
0.977136
0.976979
0.97681
0.976589
0.976509
0.449239
0.861269
0.971831
0.979352
0.97831
0.977219
0.976422
0.975887
0.975731
0.975535
0.975308
0.975242
0.455446
0.861864
0.978825
0.982072
0.97862
0.976515
0.975271
0.974613
0.974428
0.974155
0.974014
0.974048
0.594061
0.917623
0.987226
0.983393
0.978071
0.975416
0.973948
0.973269
0.973031
0.972802
0.972672
0.972743
0.575569
0.574535
0.560119
0.553683
0.560716
0.568869
0.554124
0.54261
0.517074
0.469646
0.387107
0.26119
0.945637
0.945669
0.944461
0.944216
0.944707
0.945673
0.943617
0.935761
0.90915
0.834903
0.641423
0.35259
0.977902
0.977825
0.977643
0.97761
0.977641
0.977702
0.977129
0.974156
0.962124
0.918506
0.769164
0.393417
0.981377
0.981344
0.981304
0.981323
0.981332
0.981341
0.981064
0.979339
0.971457
0.939029
0.808676
0.406196
0.981354
0.981336
0.981279
0.981252
0.981253
0.981281
0.981188
0.980066
0.974066
0.946708
0.822892
0.408233
0.98033
0.980254
0.980233
0.980185
0.980237
0.98025
0.980259
0.979558
0.974949
0.951646
0.835047
0.409785
0.978965
0.978993
0.978915
0.97893
0.978914
0.97899
0.979083
0.978862
0.975833
0.95677
0.846653
0.419649
0.977644
0.977645
0.977579
0.977554
0.977621
0.977779
0.978133
0.978426
0.976866
0.962912
0.865624
0.434069
0.976428
0.976374
0.976369
0.976363
0.97643
0.976712
0.977194
0.977936
0.978225
0.969176
0.881798
0.462551
0.97507
0.974981
0.974994
0.97499
0.975173
0.97561
0.97632
0.97761
0.979414
0.976256
0.907207
0.493075
0.973849
0.973788
0.973919
0.973886
0.974019
0.974501
0.97535
0.977056
0.980587
0.983838
0.940062
0.542809
0.972636
0.972613
0.972773
0.972805
0.972962
0.97341
0.974276
0.976203
0.980941
0.992767
1.00299
0.644428
0.939779
0.999747
0.994888
0.982663
0.976625
0.97401
0.972673
0.972035
0.971888
0.971831
0.971853
0.971628
1.0124
1.00412
0.989352
0.979088
0.974464
0.972393
0.97135
0.970901
0.970898
0.970896
0.970889
0.970595
1.00252
0.991686
0.981184
0.975107
0.972288
0.970899
0.970162
0.970027
0.970139
0.970062
0.969867
0.969596
0.986394
0.980639
0.975039
0.971885
0.970291
0.969531
0.969041
0.968999
0.969213
0.96895
0.968666
0.968345
0.971519
0.971519
0.971563
0.97172
0.971918
0.972321
0.973083
0.974844
0.979445
0.992445
1.02641
0.925785
0.970427
0.970461
0.970565
0.970801
0.970962
0.971251
0.971856
0.973159
0.976388
0.985269
1.00961
1.02737
0.969642
0.96976
0.96974
0.969848
0.969989
0.970253
0.970765
0.971567
0.973477
0.978361
0.99049
1.00526
0.968196
0.96844
0.968592
0.96881
0.968965
0.969158
0.969531
0.970027
0.971106
0.973599
0.979015
0.986383
0.976648
0.973614
0.970977
0.969463
0.968666
0.968254
0.967985
0.967928
0.967944
0.967668
0.966665
0.964358
0.971535
0.969832
0.968543
0.967811
0.967423
0.967199
0.967063
0.967023
0.966948
0.966209
0.962559
0.953734
0.968814
0.967689
0.967009
0.966655
0.96647
0.966353
0.966288
0.966252
0.966007
0.963899
0.952839
0.922802
0.967237
0.96636
0.965955
0.965787
0.965695
0.965631
0.9656
0.965549
0.96498
0.960233
0.932765
0.835055
0.964045
0.966193
0.967372
0.967788
0.967955
0.968138
0.968387
0.968704
0.969295
0.970551
0.972919
0.97616
0.952718
0.961435
0.965604
0.966778
0.967079
0.967243
0.967388
0.967577
0.967882
0.968456
0.969491
0.970896
0.920271
0.950752
0.962715
0.965669
0.966278
0.966446
0.966535
0.966644
0.966784
0.967053
0.967479
0.968131
0.827695
0.929961
0.95843
0.96442
0.965521
0.965732
0.965797
0.965862
0.965925
0.966011
0.966202
0.966552
0.966226
0.965449
0.965176
0.96509
0.965048
0.96501
0.964997
0.964916
0.963961
0.955961
0.901725
0.58585
0.965468
0.964758
0.964553
0.964504
0.964483
0.964458
0.964448
0.964349
0.963166
0.953214
0.882439
0.456201
0.964874
0.964189
0.964018
0.963989
0.963982
0.963963
0.963958
0.963856
0.962631
0.952214
0.877432
0.436683
0.964347
0.963693
0.963544
0.963527
0.963523
0.963509
0.963502
0.96341
0.962252
0.9522
0.878744
0.438088
0.963841
0.963184
0.963053
0.963033
0.963036
0.963025
0.963022
0.962941
0.961896
0.952512
0.882055
0.442367
0.962987
0.962313
0.962181
0.962168
0.962165
0.96216
0.962155
0.962085
0.961151
0.95246
0.885205
0.447626
0.960457
0.959636
0.959448
0.959449
0.959433
0.959445
0.95943
0.959382
0.958522
0.950336
0.885656
0.451635
0.951848
0.950648
0.950338
0.950328
0.95028
0.950308
0.950281
0.950256
0.949421
0.941322
0.877512
0.450216
0.92557
0.923657
0.923043
0.923057
0.922845
0.922965
0.922839
0.922925
0.921996
0.9135
0.84783
0.43496
0.855535
0.852656
0.85177
0.851537
0.851205
0.851198
0.851129
0.851168
0.850312
0.841208
0.772737
0.393075
0.681751
0.678095
0.676788
0.676091
0.675651
0.67532
0.675253
0.67515
0.674536
0.6664
0.603263
0.310564
0.285839
0.284254
0.283366
0.282378
0.281498
0.280404
0.279658
0.278799
0.278134
0.275155
0.251787
0.158069
0.577487
0.899952
0.953722
0.963214
0.964828
0.965093
0.965149
0.965195
0.965217
0.965247
0.965295
0.965521
0.459378
0.88079
0.95061
0.962303
0.964224
0.964521
0.964574
0.964601
0.964607
0.96459
0.964615
0.964781
0.442432
0.875121
0.949426
0.961731
0.963715
0.96401
0.964062
0.964077
0.964072
0.964058
0.964038
0.964174
0.442866
0.875663
0.949371
0.961374
0.963261
0.963535
0.963579
0.963589
0.963581
0.963553
0.963545
0.963668
0.446613
0.878441
0.949756
0.961072
0.962803
0.963039
0.963082
0.963087
0.96308
0.96305
0.963021
0.963138
0.450737
0.88132
0.94982
0.960396
0.961956
0.962167
0.962193
0.962208
0.962195
0.962173
0.962144
0.962255
0.454798
0.881802
0.947837
0.95784
0.959278
0.959475
0.959498
0.959516
0.959504
0.959489
0.959444
0.959548
0.45342
0.874033
0.93897
0.94882
0.950213
0.950429
0.95045
0.950487
0.950463
0.950459
0.950403
0.950519
0.438433
0.845146
0.911299
0.92155
0.923036
0.923275
0.923374
0.923376
0.923433
0.923348
0.923303
0.923425
0.396496
0.770879
0.839227
0.850097
0.85167
0.852055
0.852172
0.852281
0.852309
0.852232
0.852233
0.852282
0.313015
0.602531
0.664928
0.674769
0.676308
0.676786
0.677063
0.677203
0.677298
0.677214
0.677418
0.677212
0.158449
0.252007
0.274839
0.278007
0.278517
0.279074
0.279707
0.280438
0.281122
0.282062
0.282286
0.28207
)
;

boundaryField
{
    rotor
    {
        type            kqRWallFunction;
        value           nonuniform List<scalar> 
48
(
0.27931
0.43619
0.501096
0.545702
0.555167
0.570547
0.566682
0.570806
0.550787
0.552554
0.568039
0.583151
0.575569
0.574535
0.560119
0.553683
0.560716
0.568869
0.554124
0.54261
0.517074
0.469646
0.387107
0.26119
0.27931
0.392134
0.390191
0.396309
0.406093
0.417034
0.425632
0.43108
0.455034
0.449239
0.455446
0.594061
0.26119
0.35259
0.393417
0.406196
0.408233
0.409785
0.419649
0.434069
0.462551
0.493075
0.542809
0.644428
)
;
    }
    stator
    {
        type            kqRWallFunction;
        value           nonuniform List<scalar> 
48
(
0.285839
0.284254
0.283366
0.282378
0.281498
0.280404
0.279658
0.278799
0.278134
0.275155
0.251787
0.158069
0.158449
0.252007
0.274839
0.278007
0.278517
0.279074
0.279707
0.280438
0.281122
0.282062
0.282286
0.28207
0.577487
0.459378
0.442432
0.442866
0.446613
0.450737
0.454798
0.45342
0.438433
0.396496
0.313015
0.158449
0.58585
0.456201
0.436683
0.438088
0.442367
0.447626
0.451635
0.450216
0.43496
0.393075
0.310564
0.158069
)
;
    }
    front
    {
        type            empty;
    }
    back
    {
        type            empty;
    }
    procBoundary1to0
    {
        type            processor;
        value           nonuniform List<scalar> 
20
(
0.942427
1.01407
1.00345
0.986864
0.976842
0.971594
0.96881
0.96721
0.966172
0.96541
0.964798
0.964275
0.963758
0.962919
0.960384
0.951767
0.925466
0.855204
0.680891
0.2843
)
;
    }
    procBoundary1to3
    {
        type            processor;
        value           nonuniform List<scalar> 
20
(
0.92241
1.02614
1.00472
0.986251
0.976157
0.970964
0.968225
0.966655
0.965623
0.964878
0.964267
0.963758
0.963223
0.962341
0.959633
0.950619
0.923589
0.852656
0.678144
0.283562
)
;
    }
}


// ************************************************************************* //
