/*--------------------------------*- C++ -*----------------------------------*\
  =========                 |
  \\      /  F ield         | OpenFOAM: The Open Source CFD Toolbox
   \\    /   O peration     | Website:  https://openfoam.org
    \\  /    A nd           | Version:  6
     \\/     M anipulation  |
\*---------------------------------------------------------------------------*/
FoamFile
{
    version     2.0;
    format      ascii;
    class       volScalarField;
    location    "2000";
    object      nut;
}
// * * * * * * * * * * * * * * * * * * * * * * * * * * * * * * * * * * * * * //

dimensions      [0 2 -1 0 0 0 0];

internalField   nonuniform List<scalar> 
768
(
4.64366e-05
0.000128644
0.000151077
0.000164669
0.000170729
0.000174676
0.000175457
0.000175389
0.000171789
0.000170428
0.000173509
0.000176938
8.13824e-05
0.00054304
0.000887208
0.00109866
0.00122492
0.00129288
0.0013348
0.00135857
0.00137567
0.00137912
0.00137641
0.00137699
9.06684e-05
0.000728592
0.00149873
0.00217729
0.00263095
0.002865
0.00296862
0.00301046
0.00302827
0.00303296
0.00303127
0.00302866
0.000104578
0.000837721
0.00181838
0.00280149
0.00349521
0.00384849
0.00399196
0.00404383
0.0040614
0.00406563
0.00406471
0.00406291
0.000114685
0.000894245
0.00198128
0.00308264
0.0038448
0.00421527
0.00435696
0.00440431
0.00441878
0.0044225
0.00442294
0.00442254
0.000126878
0.000959196
0.002103
0.00324017
0.00399356
0.00433989
0.00446548
0.00450489
0.00451645
0.00451965
0.00451986
0.00451926
0.000134508
0.00101985
0.00220898
0.00335708
0.00407959
0.00439375
0.00450196
0.00453489
0.00454404
0.00454534
0.00454445
0.00454308
0.00014747
0.00107809
0.0023048
0.00345275
0.00414164
0.00442609
0.00451973
0.00454653
0.00455282
0.00455369
0.00455362
0.00455228
0.000164077
0.00111243
0.00237948
0.0035288
0.00418942
0.00444986
0.00453093
0.00455222
0.00455769
0.0045592
0.00455785
0.00455749
0.000173495
0.00110471
0.00242632
0.00358681
0.00422725
0.00446722
0.00453833
0.0045547
0.00455769
0.00456021
0.00456067
0.00456074
0.000178496
0.00104982
0.00245881
0.00364783
0.00426602
0.00448372
0.00454443
0.00455559
0.00455675
0.00455956
0.00456041
0.00456011
0.000210236
0.0011057
0.00261384
0.00378141
0.00432501
0.00450363
0.00455061
0.00455756
0.00455652
0.0045591
0.00456105
0.00456138
0.000176311
0.000175419
0.000174486
0.000173249
0.000172337
0.00017143
0.00016797
0.000164995
0.000157055
0.000142567
0.000116568
4.34713e-05
0.00137965
0.00138036
0.001385
0.0013855
0.00138205
0.00137792
0.00137156
0.00132184
0.0011629
0.000861219
0.000403504
7.11639e-05
0.00302747
0.00302629
0.00302696
0.00302678
0.00302489
0.0030165
0.0029733
0.00279321
0.00231763
0.00156308
0.000705428
9.12759e-05
0.00406153
0.00406029
0.00405955
0.00405883
0.00405718
0.00404702
0.00398733
0.00373533
0.00305778
0.00199504
0.000882082
0.000103057
0.00442215
0.00442177
0.00442124
0.0044204
0.00441893
0.00441042
0.00435714
0.00411659
0.00341251
0.00223258
0.000975172
0.000110558
0.00451841
0.00451792
0.00451798
0.00451816
0.00451775
0.00451122
0.00446909
0.00426442
0.00360831
0.00240615
0.00106327
0.000121421
0.00454209
0.00454222
0.00454231
0.00454254
0.00454272
0.00453842
0.00450637
0.00433904
0.0037498
0.0025657
0.00115866
0.000132033
0.00455057
0.0045502
0.00455003
0.00455045
0.00455057
0.00454744
0.00452393
0.00438888
0.00386706
0.00271818
0.00126603
0.000144052
0.00455686
0.00455502
0.00455449
0.00455477
0.00455487
0.00455266
0.00453475
0.00442716
0.00397245
0.00287192
0.00137156
0.000160819
0.00455956
0.00455719
0.00455627
0.00455635
0.00455741
0.00455667
0.00454366
0.00445931
0.0040702
0.00303104
0.00150164
0.000183509
0.00456134
0.00456138
0.00456008
0.00455927
0.00456041
0.00456106
0.0045511
0.00448656
0.00416676
0.00321345
0.00166323
0.000212619
0.00456284
0.00456466
0.00456385
0.0045627
0.00456411
0.00456482
0.00455743
0.00451245
0.00427207
0.00345334
0.001918
0.00026049
0.00118705
0.00214533
0.00325933
0.00405846
0.0044131
0.004528
0.00455799
0.00456042
0.0045588
0.00456326
0.0045648
0.00456389
0.00249344
0.00317323
0.00386719
0.00430451
0.00448909
0.00454825
0.00456328
0.00456241
0.00456087
0.00456645
0.00456735
0.00456314
0.00358731
0.00391926
0.00425702
0.00445513
0.00453629
0.00456108
0.00456632
0.00456617
0.00456507
0.00456887
0.00456691
0.00455801
0.0042
0.00431935
0.0044523
0.00452924
0.00455934
0.00456821
0.00456663
0.00456737
0.00456865
0.00456506
0.00455411
0.0045237
0.00456386
0.00456364
0.00456251
0.00456215
0.0045647
0.00456642
0.00456241
0.00453706
0.00439534
0.00384059
0.00260231
0.000997545
0.0045636
0.00456547
0.00456427
0.00456397
0.00456508
0.00456722
0.00456653
0.00455412
0.00448721
0.0042023
0.00344397
0.00229326
0.00456152
0.00456715
0.00456727
0.0045667
0.00456643
0.00456814
0.00456829
0.00456345
0.00453708
0.00442013
0.00406954
0.00345708
0.0045202
0.00455064
0.00456325
0.00456795
0.00457113
0.00457107
0.00456983
0.00456853
0.00455959
0.00451888
0.00438847
0.00414885
0.00444948
0.00449151
0.00453606
0.00456141
0.00457101
0.00457355
0.00457301
0.00457304
0.00457214
0.00455997
0.0044956
0.00434789
0.00453747
0.00455112
0.00456521
0.00457295
0.00457585
0.00457659
0.00457633
0.00457587
0.0045699
0.00452102
0.00428594
0.00382849
0.00456601
0.00457079
0.00457521
0.00457753
0.00457834
0.00457858
0.00457846
0.00457693
0.00455834
0.00441542
0.0038105
0.00286138
0.00457527
0.00457751
0.00457901
0.00457987
0.00458006
0.00458009
0.00457996
0.00457635
0.00453507
0.00423591
0.00313062
0.00156115
0.00433187
0.00447419
0.00454797
0.00456896
0.00457379
0.0045746
0.00457424
0.00457419
0.0045713
0.00455658
0.00451054
0.00443323
0.00379429
0.00424883
0.00449301
0.00456059
0.0045744
0.00457681
0.00457705
0.00457727
0.00457641
0.00457156
0.00455693
0.00453409
0.00281526
0.00378851
0.00437555
0.00454089
0.00457309
0.00457828
0.00457889
0.00457916
0.00457896
0.00457741
0.00457305
0.0045664
0.00149047
0.00312465
0.00420145
0.00451196
0.00457028
0.00457923
0.00458033
0.00458058
0.00458058
0.00458002
0.00457877
0.00457666
0.00457875
0.00458037
0.00458107
0.0045814
0.0045814
0.00458141
0.00458118
0.00457527
0.00451012
0.00406026
0.00243459
0.000341036
0.00458058
0.0045821
0.00458264
0.00458284
0.00458275
0.00458262
0.00458233
0.00457538
0.00450043
0.00399898
0.00229856
0.000278525
0.00458192
0.00458339
0.00458384
0.00458398
0.00458389
0.00458373
0.00458341
0.00457664
0.00450289
0.0040042
0.00230236
0.000272354
0.00458281
0.00458413
0.0045844
0.00458443
0.00458432
0.00458423
0.00458399
0.00457803
0.00451066
0.00403784
0.0023565
0.00028012
0.00458055
0.00458136
0.00458144
0.00458131
0.00458122
0.00458125
0.00458106
0.00457603
0.00451639
0.00407716
0.00242587
0.000291086
0.00455635
0.00455436
0.00455377
0.00455351
0.00455346
0.00455353
0.00455338
0.00454926
0.00449739
0.00409479
0.00248874
0.000302292
0.00443605
0.00442718
0.00442494
0.00442427
0.00442412
0.00442416
0.00442418
0.00442105
0.0043773
0.00401981
0.00250952
0.000312157
0.00404764
0.00402886
0.00402406
0.00402244
0.00402213
0.00402203
0.00402257
0.00402069
0.00398739
0.00370072
0.00241082
0.000316231
0.00323507
0.00321458
0.00320864
0.00320633
0.003206
0.00320575
0.0032071
0.00320664
0.00318698
0.00300236
0.00209445
0.00030851
0.00217737
0.00217071
0.00216603
0.00216484
0.00216447
0.00216442
0.0021667
0.00216696
0.00215962
0.00207209
0.00157782
0.000283336
0.0010313
0.00102386
0.00102129
0.00101943
0.00102066
0.00101984
0.00102282
0.00102287
0.00102269
0.000996193
0.000820556
0.000232547
0.000105754
0.000105036
0.00010475
0.00010449
0.000104332
0.00010404
0.000103972
0.000103788
0.000103617
0.000101978
9.03956e-05
5.02176e-05
0.000335603
0.00246974
0.00403188
0.00448491
0.00456785
0.00458008
0.00458163
0.00458185
0.00458194
0.00458165
0.00458121
0.00458032
0.000279931
0.00231792
0.00396687
0.00447393
0.00456749
0.00458112
0.00458284
0.004583
0.00458306
0.00458276
0.00458259
0.00458211
0.000276688
0.00231054
0.00396752
0.00447623
0.004569
0.00458229
0.00458395
0.00458405
0.00458398
0.00458379
0.00458376
0.0045834
0.000284407
0.00235483
0.00399792
0.00448504
0.00457117
0.00458312
0.00458459
0.00458471
0.00458461
0.00458452
0.00458449
0.00458415
0.000294584
0.00241622
0.00403572
0.00449262
0.00457003
0.00458031
0.00458154
0.00458172
0.00458164
0.00458163
0.00458149
0.00458117
0.000304981
0.00247444
0.00405423
0.00447616
0.0045445
0.00455323
0.00455428
0.0045545
0.0045545
0.00455446
0.00455423
0.00455405
0.000314768
0.00249459
0.00398393
0.00436007
0.0044188
0.00442625
0.00442733
0.0044276
0.00442765
0.00442748
0.00442706
0.00442752
0.000318604
0.00239935
0.00367452
0.00397684
0.00402306
0.00402935
0.0040307
0.00403117
0.00403115
0.0040307
0.00402994
0.00403091
0.000311168
0.00208615
0.00298722
0.00318404
0.00321414
0.0032189
0.00322047
0.00322113
0.00322087
0.00322013
0.00321906
0.00321962
0.000285703
0.00156655
0.00206354
0.00216104
0.00217642
0.00217957
0.00218026
0.00218051
0.00217925
0.0021797
0.0021788
0.00217665
0.00023436
0.00081815
0.000993522
0.00102505
0.00103067
0.00103192
0.00103193
0.00103138
0.00102971
0.00103031
0.00103059
0.00102702
5.02096e-05
9.03713e-05
0.00010181
0.000103589
0.000103813
0.000103975
0.00010407
0.00010435
0.000104299
0.000104847
0.000105094
0.000104773
)
;

boundaryField
{
    rotor
    {
        type            nutkWallFunction;
        Cmu             0.09;
        kappa           0.41;
        E               9.8;
        value           nonuniform List<scalar> 
48
(
5.62315e-06
2.09069e-05
2.27551e-05
2.39477e-05
2.41936e-05
2.45882e-05
2.44896e-05
2.45948e-05
2.40802e-05
2.4126e-05
2.45243e-05
2.49072e-05
2.47158e-05
2.46896e-05
2.43214e-05
2.41553e-05
2.43367e-05
2.45455e-05
2.41667e-05
2.38669e-05
2.31889e-05
2.18776e-05
1.94032e-05
5.20436e-06
5.62315e-06
9.64164e-06
1.12792e-05
1.30828e-05
1.49814e-05
1.69244e-05
1.88182e-05
2.06298e-05
2.30138e-05
2.44978e-05
2.63559e-05
3.25143e-05
5.20436e-06
8.80455e-06
1.13514e-05
1.33191e-05
1.50359e-05
1.67287e-05
1.86485e-05
2.07184e-05
2.32414e-05
2.58743e-05
2.91452e-05
3.40041e-05
)
;
    }
    stator
    {
        type            nutkWallFunction;
        Cmu             0.09;
        kappa           0.41;
        E               9.8;
        value           nonuniform List<scalar> 
48
(
1.54116e-05
1.53531e-05
1.53202e-05
1.52835e-05
1.52508e-05
1.52101e-05
1.51822e-05
1.51501e-05
1.51252e-05
1.50133e-05
1.41102e-05
9.89995e-06
9.91957e-06
1.41189e-05
1.50014e-05
1.51204e-05
1.51396e-05
1.51604e-05
1.51841e-05
1.52113e-05
1.52368e-05
1.52718e-05
1.52801e-05
1.52721e-05
4.79936e-05
4.41701e-05
4.48457e-05
4.63994e-05
4.81332e-05
4.9893e-05
5.16547e-05
5.3099e-05
5.36946e-05
5.24394e-05
4.77212e-05
9.91957e-06
4.83508e-05
4.40101e-05
4.45407e-05
4.6139e-05
4.78965e-05
4.97159e-05
5.14709e-05
5.29077e-05
5.3478e-05
5.22082e-05
4.75279e-05
9.89995e-06
)
;
    }
    front
    {
        type            empty;
    }
    back
    {
        type            empty;
    }
    procBoundary1to0
    {
        type            processor;
        value           nonuniform List<scalar> 
20
(
0.0011879
0.00249423
0.00358724
0.00420051
0.00444985
0.00453763
0.00456607
0.00457529
0.00457875
0.00458052
0.0045818
0.00458266
0.00458039
0.00455616
0.00443565
0.00404679
0.00323361
0.00217737
0.00103193
0.000105309
)
;
    }
    procBoundary1to3
    {
        type            processor;
        value           nonuniform List<scalar> 
20
(
0.000984093
0.00228669
0.00345572
0.00414928
0.00443346
0.00453422
0.00456658
0.00457683
0.00458052
0.00458234
0.00458361
0.00458432
0.0045813
0.00455417
0.00442785
0.0040318
0.00322123
0.00217909
0.00102966
0.00010538
)
;
    }
}


// ************************************************************************* //
