/*--------------------------------*- C++ -*----------------------------------*\
  =========                 |
  \\      /  F ield         | OpenFOAM: The Open Source CFD Toolbox
   \\    /   O peration     | Website:  https://openfoam.org
    \\  /    A nd           | Version:  6
     \\/     M anipulation  |
\*---------------------------------------------------------------------------*/
FoamFile
{
    version     2.0;
    format      ascii;
    class       volVectorField;
    location    "2000";
    object      U;
}
// * * * * * * * * * * * * * * * * * * * * * * * * * * * * * * * * * * * * * //

dimensions      [0 1 -1 0 0 0 0];

internalField   nonuniform List<vector> 
768
(
(0.275349 1.3108 0)
(0.278743 1.33785 0)
(0.328528 1.256 6.35065e-21)
(0.402509 1.19883 -2.64843e-19)
(0.458897 1.13376 3.28696e-19)
(0.512573 1.09955 -1.18801e-19)
(0.563928 1.05114 -4.79389e-20)
(0.622764 1.00953 -2.82829e-19)
(0.677741 0.956841 5.27084e-19)
(0.736623 0.908931 -1.6937e-19)
(0.79198 0.852338 2.57527e-19)
(0.851052 0.798357 1.81421e-19)
(0.402202 1.03097 -5.44702e-20)
(0.284244 0.89209 -1.7092e-19)
(0.216423 0.758653 6.40237e-20)
(0.203162 0.658839 0)
(0.209343 0.598197 1.36517e-20)
(0.220967 0.555178 -7.23019e-21)
(0.237204 0.520802 0)
(0.257253 0.491679 0)
(0.280673 0.464104 0)
(0.305645 0.43734 6.0607e-21)
(0.332053 0.410226 -2.30231e-19)
(0.358288 0.383224 -1.96608e-21)
(0.454111 0.865889 6.1623e-20)
(0.216407 0.68146 0)
(0.131174 0.51422 0)
(0.110774 0.42265 3.15854e-20)
(0.111726 0.37595 -1.52138e-20)
(0.119393 0.345321 2.32368e-20)
(0.130336 0.321186 -2.51892e-20)
(0.143413 0.300426 0)
(0.158303 0.281238 0)
(0.174219 0.262805 -2.6692e-20)
(0.190879 0.244543 -4.69736e-20)
(0.207715 0.226454 1.27965e-19)
(0.358394 0.86279 -7.26402e-20)
(0.128444 0.636987 -2.76516e-20)
(0.0689919 0.457775 1.77128e-20)
(0.0606104 0.367064 2.97448e-20)
(0.0674213 0.323688 -6.66224e-20)
(0.0785524 0.295604 6.40892e-20)
(0.0912585 0.273062 2.03071e-20)
(0.104871 0.2532 8.50736e-21)
(0.119284 0.234797 -2.29716e-20)
(0.13423 0.217255 2.2266e-20)
(0.149561 0.200183 6.7438e-20)
(0.165031 0.183421 -6.69395e-20)
(0.268858 0.926394 0)
(0.0343609 0.663025 2.1467e-20)
(0.0123989 0.454971 2.71788e-20)
(0.021505 0.361147 -5.64224e-20)
(0.0364823 0.316593 -6.23182e-21)
(0.0522153 0.287409 -3.09892e-20)
(0.0681455 0.263645 -1.92349e-20)
(0.0840894 0.242565 -7.41643e-21)
(0.100296 0.22301 -1.9795e-20)
(0.116511 0.204553 1.97841e-20)
(0.132856 0.186703 -9.49109e-20)
(0.149086 0.16936 1.49956e-19)
(0.126568 0.996954 7.70787e-20)
(-0.0667002 0.690321 -2.2665e-20)
(-0.0460562 0.463744 -7.04235e-20)
(-0.017083 0.365756 0)
(0.00707694 0.318645 9.96758e-20)
(0.0281636 0.287151 -8.52038e-20)
(0.0477316 0.261498 0)
(0.0666829 0.238771 4.8663e-21)
(0.0851834 0.217932 -4.85774e-21)
(0.103381 0.198318 0)
(0.121207 0.179584 -8.8635e-21)
(0.138781 0.16131 7.99311e-20)
(-0.0172545 1.05681 0)
(-0.183594 0.716489 9.66641e-20)
(-0.110703 0.471612 -7.4299e-20)
(-0.0589293 0.369225 0)
(-0.0242734 0.318906 5.13127e-20)
(0.00286084 0.284922 -2.29145e-20)
(0.0266643 0.257493 -6.26735e-20)
(0.0489499 0.233514 -2.98589e-22)
(0.0700686 0.211783 2.98257e-22)
(0.0903676 0.191474 4.57842e-20)
(0.109805 0.172157 -5.59439e-20)
(0.12867 0.153225 -2.74624e-19)
(-0.195217 1.11017 0)
(-0.312635 0.736128 -9.18476e-20)
(-0.181774 0.474759 1.11937e-19)
(-0.104459 0.367297 -8.92484e-20)
(-0.0576331 0.313573 0)
(-0.0236422 0.277485 7.79668e-20)
(0.00505353 0.248938 -2.25364e-20)
(0.030824 0.224548 3.08039e-20)
(0.0547287 0.202631 -4.49911e-20)
(0.0769525 0.182366 -6.45416e-20)
(0.0979399 0.162939 -1.65137e-20)
(0.117756 0.143893 2.01577e-19)
(-0.418384 1.12287 0)
(-0.456216 0.744225 1.76993e-19)
(-0.260096 0.469526 1.50814e-19)
(-0.15302 0.357035 8.70228e-20)
(-0.0920427 0.300561 -1.0121e-19)
(-0.0499663 0.263517 0)
(-0.0160541 0.235189 0)
(0.0133881 0.211497 0)
(0.0397939 0.190449 0)
(0.0637977 0.170935 5.51898e-20)
(0.0858967 0.152133 -9.69164e-20)
(0.106398 0.133411 9.69386e-20)
(-0.627146 1.05144 0)
(-0.615093 0.717134 -1.72166e-19)
(-0.343764 0.444517 8.7334e-22)
(-0.202554 0.333096 -7.99473e-20)
(-0.125365 0.277532 -3.45259e-20)
(-0.0744066 0.242327 3.17711e-20)
(-0.035157 0.21627 0)
(-0.00234468 0.194795 4.51963e-21)
(0.0261867 0.175684 -1.4381e-19)
(0.0515221 0.157738 0)
(0.0743292 0.140172 1.982e-19)
(0.0950688 0.122293 -1.27411e-19)
(-0.865695 0.74779 0)
(-0.756716 0.580747 -1.92085e-19)
(-0.416453 0.379006 -2.55398e-19)
(-0.245486 0.287683 1.42908e-19)
(-0.153504 0.24216 9.52046e-20)
(-0.0944994 0.213782 -5.53205e-20)
(-0.0507523 0.192841 1.86608e-21)
(-0.015372 0.175235 -4.0185e-20)
(0.0145895 0.159088 5.85134e-20)
(0.0406796 0.143418 -1.76911e-19)
(0.0637215 0.127608 -3.09713e-19)
(0.0842702 0.111003 3.67594e-19)
(-0.897915 -0.0366384 1.85425e-19)
(-0.7346 0.24185 4.3318e-19)
(-0.434179 0.246684 -4.04555e-21)
(-0.266678 0.214606 0)
(-0.170105 0.19424 0)
(-0.107341 0.179196 2.90444e-20)
(-0.0614152 0.166293 1.13814e-19)
(-0.0249575 0.153969 9.33692e-20)
(0.00546507 0.141535 0)
(0.0316068 0.128633 1.74963e-19)
(0.0544065 0.114935 0)
(0.0743553 0.0999726 1.44807e-20)
(0.902391 0.736389 -1.12719e-18)
(0.954931 0.676497 4.62971e-19)
(0.99845 0.610662 -6.50589e-19)
(1.0419 0.548244 -2.92899e-19)
(1.0781 0.482946 -2.60803e-19)
(1.11378 0.419989 0)
(1.14302 0.357777 0)
(1.17183 0.29624 3.47884e-19)
(1.1816 0.221586 -3.8823e-19)
(1.2944 0.185441 0)
(1.31169 0.205564 0)
(1.1076 0.244911 -9.49397e-21)
(0.384353 0.355355 2.00544e-19)
(0.409691 0.327369 0)
(0.434242 0.298679 -3.4279e-20)
(0.45784 0.270639 1.15236e-19)
(0.481224 0.243559 5.97259e-20)
(0.504839 0.218874 2.8926e-19)
(0.530308 0.197578 -4.32289e-19)
(0.561545 0.182672 5.76659e-20)
(0.609254 0.17782 0)
(0.698903 0.206313 0)
(0.841585 0.303218 0)
(0.942463 0.418068 -1.93149e-20)
(0.224684 0.208317 7.03684e-20)
(0.241454 0.190309 -1.95644e-19)
(0.258137 0.172451 6.93878e-20)
(0.274714 0.155179 1.75089e-19)
(0.291642 0.138759 -1.75104e-19)
(0.309384 0.123738 0)
(0.329253 0.110691 0)
(0.353795 0.101038 -1.65726e-20)
(0.391832 0.0985994 6.43663e-20)
(0.472299 0.115981 0)
(0.629636 0.182941 0)
(0.821459 0.326315 -2.79236e-20)
(0.180593 0.166842 -5.83262e-21)
(0.196154 0.150453 1.64807e-19)
(0.211803 0.134278 1.46449e-19)
(0.227674 0.118484 -1.4647e-19)
(0.244126 0.103208 0)
(0.261597 0.0886633 9.94573e-20)
(0.28102 0.0750733 0)
(0.304493 0.0631368 1.65952e-19)
(0.339804 0.0553308 -5.1061e-20)
(0.416296 0.0596652 0)
(0.581404 0.0971158 -6.61371e-20)
(0.802211 0.21062 2.67717e-19)
(0.165371 0.15219 -9.75994e-20)
(0.181597 0.135223 0)
(0.198051 0.118257 0)
(0.214841 0.10143 0)
(0.232444 0.084686 0)
(0.251272 0.0681995 -1.99768e-19)
(0.272272 0.0519803 -3.04039e-21)
(0.297441 0.0361842 -9.99122e-20)
(0.334282 0.0211802 0)
(0.413273 0.00913712 -1.0044e-19)
(0.594098 0.00831034 6.09045e-20)
(0.867481 0.0804054 -5.31571e-20)
(0.156109 0.143265 7.59021e-21)
(0.173404 0.125167 -2.57252e-19)
(0.190799 0.106876 1.65922e-19)
(0.208703 0.0882628 2.18721e-20)
(0.227487 0.0693255 1.71217e-20)
(0.247843 0.0500234 3.34831e-19)
(0.270679 0.0303736 8.63112e-21)
(0.298056 0.0096846 -3.97784e-19)
(0.336889 -0.0138556 -1.69304e-19)
(0.417644 -0.0442064 9.47881e-20)
(0.611541 -0.0861727 -2.23813e-19)
(0.916985 -0.0698332 -4.34543e-19)
(0.146986 0.134417 3.47954e-19)
(0.16509 0.115226 1.52697e-19)
(0.183189 0.0955187 0)
(0.201731 0.0749698 0)
(0.22125 0.0535247 1.8101e-20)
(0.242508 0.031064 -2.23626e-19)
(0.266599 0.00732229 4.01462e-19)
(0.29545 -0.0188933 -1.08713e-22)
(0.335834 -0.0510575 1.64913e-19)
(0.41749 -0.0991786 0)
(0.616765 -0.180379 -3.75471e-20)
(0.914088 -0.217208 -5.16035e-20)
(0.136815 0.124573 -1.13097e-19)
(0.155256 0.104641 -1.45206e-19)
(0.17357 0.0836215 1.76009e-19)
(0.192101 0.0613031 -2.08747e-19)
(0.211593 0.0373708 -2.41782e-20)
(0.232821 0.011665 4.80854e-19)
(0.257096 -0.0163808 -2.65369e-19)
(0.286763 -0.0482162 1.5419e-19)
(0.327782 -0.0893391 0)
(0.407836 -0.15489 1.19837e-19)
(0.609514 -0.274097 1.09117e-19)
(0.895764 -0.355814 -7.35607e-19)
(0.125666 0.114109 1.43811e-19)
(0.14403 0.0937297 -1.43835e-19)
(0.161887 0.0718275 -1.7539e-19)
(0.179765 0.0480183 -4.16847e-19)
(0.198296 0.0220087 4.50967e-19)
(0.218485 -0.00672371 -4.8445e-19)
(0.241667 -0.0388429 0)
(0.270175 -0.076632 -1.52723e-19)
(0.310199 -0.126797 0)
(0.38687 -0.209814 0)
(0.579927 -0.364801 0)
(0.840289 -0.516065 3.58253e-19)
(0.114116 0.103432 1.27449e-19)
(0.13187 0.0830513 -3.254e-19)
(0.148752 0.060667 3.67296e-19)
(0.165255 0.0359353 3.9646e-19)
(0.182027 0.00835067 2.15014e-19)
(0.199953 -0.022714 0)
(0.220407 -0.0585237 0)
(0.245849 -0.101892 3.06902e-19)
(0.281512 -0.161056 0)
(0.348317 -0.261143 -1.24617e-19)
(0.523054 -0.454209 1.31972e-19)
(0.760381 -0.695186 -6.43416e-19)
(0.102669 0.0929986 -2.93061e-19)
(0.119376 0.0730049 3.22273e-19)
(0.134827 0.0506329 -3.63795e-19)
(0.149424 0.0255522 -1.02751e-18)
(0.163719 -0.00281564 1.89246e-21)
(0.178351 -0.0352925 9.30647e-21)
(0.194361 -0.0736887 -2.67736e-19)
(0.213512 -0.121526 -3.02766e-19)
(0.240218 -0.188112 0)
(0.288664 -0.300875 3.62404e-19)
(0.405701 -0.522108 1.21234e-19)
(0.640394 -0.843534 -4.86653e-19)
(0.0917227 0.0831797 -1.13378e-20)
(0.107041 0.063928 0)
(0.120734 0.0420256 0)
(0.133112 0.0171969 1.92068e-19)
(0.144467 -0.0110475 6.53026e-19)
(0.155049 -0.0437594 -2.41563e-19)
(0.165159 -0.0829315 6.27981e-21)
(0.175405 -0.132536 -1.31532e-19)
(0.187143 -0.201829 -1.58874e-19)
(0.20562 -0.316819 -2.2109e-19)
(0.255377 -0.551483 0)
(0.301012 -1.20095 2.55623e-19)
(-0.262241 -0.548136 -7.32471e-20)
(-0.514959 -0.110665 -1.24959e-19)
(-0.380848 0.0813177 4.79367e-20)
(-0.255431 0.128197 0)
(-0.170273 0.141142 3.81889e-20)
(-0.110977 0.142646 -2.41002e-20)
(-0.0664332 0.139005 -1.563e-19)
(-0.0308087 0.132463 -1.42957e-19)
(-0.00104665 0.123983 1.55416e-20)
(0.0244567 0.11401 -9.51341e-20)
(0.0465591 0.102607 2.44916e-19)
(0.0655965 0.0895426 -2.62342e-19)
(-0.173642 -0.44867 0)
(-0.346991 -0.187834 0)
(-0.29625 -0.0101041 -6.2461e-21)
(-0.220021 0.0642609 6.6072e-20)
(-0.156358 0.0962463 -1.33807e-19)
(-0.106399 0.109644 -1.17418e-19)
(-0.0663698 0.113568 1.2866e-19)
(-0.0332623 0.112092 4.33392e-19)
(-0.00513484 0.107245 -9.21137e-20)
(0.0191668 0.100056 0)
(0.0402238 0.090963 1.49042e-20)
(0.0581858 0.0799672 0)
(-0.0912269 -0.317043 -1.89394e-20)
(-0.226026 -0.17412 1.81779e-20)
(-0.221121 -0.0461865 1.0191e-19)
(-0.180225 0.0252475 2.79183e-20)
(-0.136366 0.0630987 6.56213e-20)
(-0.0969298 0.0825949 -3.63239e-20)
(-0.0627288 0.0914407 0)
(-0.0330819 0.0937404 -7.95784e-20)
(-0.00719424 0.0918523 -1.02244e-19)
(0.0155383 0.0871161 3.66854e-19)
(0.0354031 0.0802047 -3.75698e-19)
(0.0523784 0.0714316 2.88935e-19)
(-0.0529384 -0.226187 -4.93251e-20)
(-0.150755 -0.144288 7.22276e-20)
(-0.164163 -0.0559472 2.34836e-20)
(-0.144517 0.00383069 -8.86439e-20)
(-0.115448 0.0404692 -2.06996e-19)
(-0.0853351 0.0618203 -2.90765e-20)
(-0.0569627 0.0731639 -2.12148e-19)
(-0.0310588 0.0778633 1.10357e-19)
(-0.00765011 0.0781328 -1.10339e-19)
(0.013371 0.0753788 -2.39115e-19)
(0.0321317 0.0704512 0)
(0.0486775 0.06431 3.03884e-19)
(0.0815622 0.0742799 2.9702e-19)
(0.0952264 0.0560383 3.38024e-19)
(0.107004 0.0349607 0)
(0.117065 0.0109558 0)
(0.12539 -0.0163367 2.23986e-19)
(0.131775 -0.0479324 -2.2395e-19)
(0.135535 -0.0855815 1.23958e-19)
(0.135222 -0.132819 4.09215e-19)
(0.127925 -0.196758 0)
(0.104886 -0.29415 0)
(0.0442061 -0.464999 6.40873e-20)
(-0.326487 -0.834002 -2.04518e-19)
(0.0723709 0.0665594 -3.12398e-19)
(0.084146 0.049428 6.04818e-21)
(0.0939834 0.0294002 0)
(0.101825 0.0066654 -2.02967e-19)
(0.107401 -0.0190304 -1.4548e-20)
(0.110096 -0.0483728 2.1744e-19)
(0.108606 -0.0825936 0)
(0.100351 -0.123718 -2.54171e-19)
(0.0802383 -0.175058 0)
(0.0372572 -0.242175 -3.07853e-19)
(-0.0562212 -0.324785 -1.92341e-19)
(-0.364514 -0.32963 -1.25808e-27)
(0.0642542 0.0603406 -9.54537e-21)
(0.0738968 0.0441273 -3.33543e-19)
(0.0818457 0.0252162 0)
(0.0877148 0.00398102 3.84173e-19)
(0.0910123 -0.0197238 2.11156e-19)
(0.0908669 -0.0462124 1.33189e-20)
(0.0857456 -0.0760988 -5.6352e-19)
(0.072824 -0.109972 7.43051e-19)
(0.0472596 -0.148195 -1.27286e-19)
(-9.26473e-05 -0.189464 6.41252e-19)
(-0.0890272 -0.222321 2.42235e-19)
(-0.272082 -0.182613 -4.37813e-20)
(0.0574302 0.0562135 9.62948e-19)
(0.0644579 0.0401452 0)
(0.0705587 0.0221703 0)
(0.0747444 0.00246232 -3.77693e-19)
(0.0762446 -0.019102 -3.98639e-19)
(0.0740899 -0.0426029 4.20224e-19)
(0.0667543 -0.0680832 8.93424e-19)
(0.051752 -0.0952033 -4.77346e-19)
(0.0251971 -0.12261 2.45963e-19)
(-0.0189228 -0.146452 -2.69096e-19)
(-0.0908566 -0.154814 -1.4485e-19)
(-0.200554 -0.108407 -3.21003e-20)
(-0.0372787 -0.164846 4.69187e-20)
(-0.105632 -0.113521 7.67468e-21)
(-0.12296 -0.0522199 -1.16516e-19)
(-0.114463 -0.00520055 0)
(-0.0953202 0.0267338 1.48862e-19)
(-0.0725911 0.0470188 3.74584e-19)
(-0.0494115 0.0588131 5.46297e-19)
(-0.0271216 0.0645588 0)
(-0.00619874 0.0660951 0)
(0.0131666 0.06476 -1.32758e-19)
(0.0312304 0.0617343 1.33977e-19)
(0.0486556 0.0590591 -5.9812e-19)
(-0.0244543 -0.124003 -2.12949e-20)
(-0.0749029 -0.091298 6.16588e-20)
(-0.0933069 -0.0479555 -1.75878e-19)
(-0.0914978 -0.0109313 0)
(-0.0791984 0.0164819 2.47114e-19)
(-0.0620547 0.0351691 -2.22433e-19)
(-0.0431077 0.0468058 -1.06164e-19)
(-0.0238949 0.0530563 3.88391e-21)
(-0.005093 0.0553952 -1.22807e-19)
(0.0130662 0.0551192 0)
(0.0316405 0.0539459 0)
(0.0534852 0.0568555 6.80536e-19)
(-0.0167306 -0.0960692 0)
(-0.0546186 -0.0746216 -7.6893e-20)
(-0.0718436 -0.0433487 1.3695e-19)
(-0.073533 -0.0141498 6.43634e-20)
(-0.0657633 0.00906828 -3.69053e-19)
(-0.0527943 0.0258304 1.85316e-19)
(-0.0372946 0.0368242 -3.75123e-19)
(-0.0207424 0.0430741 1.2661e-19)
(-0.00381634 0.0456857 4.87559e-21)
(0.01348 0.0457958 6.43671e-21)
(0.0342031 0.0459176 -8.19889e-19)
(0.0666929 0.0569074 -8.8197e-19)
(-0.0118476 -0.0764273 0)
(-0.0408199 -0.0618691 1.58883e-19)
(-0.0560586 -0.0388228 0)
(-0.059434 -0.0156908 2.77281e-19)
(-0.0546335 0.003808 0)
(-0.0447868 0.0185596 1.3338e-19)
(-0.0320931 0.0286096 5.01515e-19)
(-0.0178881 0.0344703 -1.27178e-19)
(-0.00279699 0.0368212 0)
(0.0134641 0.0363455 0)
(0.0368348 0.0352213 -1.85083e-19)
(0.0883525 0.0516149 3.67393e-19)
(0.0524875 0.055101 -6.60872e-19)
(0.0559918 0.0371241 -1.75086e-19)
(0.0602745 0.0194364 8.86188e-19)
(0.0630195 0.00105477 -5.64183e-19)
(0.0630839 -0.0184936 7.82691e-19)
(0.0594485 -0.0391781 -8.12866e-19)
(0.0507004 -0.0606553 -1.07568e-18)
(0.0348218 -0.0820546 0)
(0.00905383 -0.101221 -2.4126e-19)
(-0.0300092 -0.113516 0)
(-0.085824 -0.108809 0)
(-0.152737 -0.0642391 -5.8092e-20)
(0.0499033 0.0599931 0)
(0.0480466 0.0367498 0)
(0.050715 0.0184236 -7.07294e-19)
(0.052505 0.00118502 1.78518e-19)
(0.0517682 -0.0164241 1.88202e-19)
(0.0474774 -0.0344198 5.65409e-22)
(0.0384597 -0.0523327 5.29581e-19)
(0.0232101 -0.0690671 3.29252e-19)
(-1.6444e-05 -0.0823714 0)
(-0.0327307 -0.0880787 0)
(-0.0747929 -0.0786345 -2.95924e-20)
(-0.117566 -0.0411167 1.4939e-19)
(0.0492556 0.073263 0)
(0.0398488 0.0383966 -2.0448e-19)
(0.0417282 0.0180232 -5.54983e-19)
(0.0432028 0.00165749 7.37577e-19)
(0.0421846 -0.0141766 7.61488e-19)
(0.037775 -0.0297744 1.93476e-19)
(0.0290912 -0.0446779 -3.12734e-19)
(0.0151104 -0.0577591 -3.23943e-19)
(-0.00514527 -0.0669597 4.37728e-19)
(-0.0320022 -0.068802 0)
(-0.0637189 -0.0579584 2.79247e-20)
(-0.0922641 -0.0273692 8.02378e-20)
(0.0420173 0.0953588 -1.96618e-18)
(0.0293132 0.0399762 -1.00972e-18)
(0.0327932 0.0172159 7.47957e-19)
(0.0348289 0.0019652 -9.13862e-19)
(0.033989 -0.012099 1.88632e-19)
(0.0298239 -0.0255509 0)
(0.0217995 -0.0379335 -1.00313e-19)
(0.00931626 -0.0481937 -3.16304e-21)
(-0.00804197 -0.0545373 -3.24362e-19)
(-0.029937 -0.0542085 0)
(-0.0540961 -0.0435349 -1.88558e-19)
(-0.0739198 -0.0188653 -2.36611e-19)
(-0.00864545 -0.0622446 -4.26587e-20)
(-0.0311567 -0.0519911 -1.55772e-19)
(-0.0442788 -0.0346621 0)
(-0.0483252 -0.0162219 -2.719e-19)
(-0.0454684 8.56563e-05 -6.59631e-20)
(-0.0379613 0.0129045 -3.1921e-19)
(-0.0275712 0.0218832 1.29683e-19)
(-0.0154918 0.0271367 0)
(-0.00242229 0.0288946 0)
(0.0116017 0.0271144 1.46596e-19)
(0.0329464 0.0216204 7.10355e-19)
(0.0857471 0.00912795 0)
(-0.0064557 -0.0517281 4.1824e-20)
(-0.0242141 -0.0442787 0)
(-0.0353777 -0.0309886 -2.95168e-19)
(-0.0395458 -0.0161734 6.87153e-20)
(-0.037961 -0.00254467 -6.8716e-20)
(-0.032214 0.00850838 4.03436e-19)
(-0.0237246 0.0164191 2.60941e-19)
(-0.0135554 0.0210321 -1.29981e-19)
(-0.00250069 0.0222915 0)
(0.00906225 0.0199408 0)
(0.0269658 0.0138614 0)
(0.0625291 -0.00749361 0)
(-0.00490912 -0.0437765 -4.03819e-20)
(-0.019106 -0.0381885 -1.90853e-19)
(-0.0285626 -0.0278197 3.26753e-19)
(-0.0325698 -0.0158202 0)
(-0.0318169 -0.00441386 0)
(-0.0274034 0.00508148 -1.19158e-18)
(-0.0204808 0.0120058 6.58894e-19)
(-0.0119858 0.0160441 0)
(-0.00276115 0.0170227 -1.30118e-19)
(0.00655211 0.0147861 2.86995e-19)
(0.0198829 0.00992992 -2.45641e-19)
(0.0430143 -0.00612472 0)
(-0.00378165 -0.0376429 3.959e-20)
(-0.0152795 -0.033359 1.50455e-19)
(-0.0232894 -0.025128 -2.90445e-19)
(-0.0270058 -0.0153206 2.1223e-19)
(-0.0267918 -0.00574029 -2.04685e-19)
(-0.0233947 0.00241121 -1.41161e-19)
(-0.0177579 0.0084605 -9.11124e-19)
(-0.0106972 0.0120095 -1.28256e-19)
(-0.00305817 0.0128515 1.29753e-19)
(0.00440944 0.0109253 5.65962e-19)
(0.0140776 0.00705018 0)
(0.0284694 -0.0035081 0)
(-0.0029606 -0.0328856 0)
(-0.0123615 -0.0295122 0)
(-0.019181 -0.0228806 2.84842e-19)
(-0.0225463 -0.0147918 -2.75631e-19)
(-0.0226874 -0.00670005 -3.42882e-19)
(-0.0200602 0.00031442 1.25518e-18)
(-0.015474 0.0056146 2.55632e-19)
(-0.00961812 0.00876497 6.43852e-19)
(-0.0033083 0.0095627 0)
(0.0026842 0.00800133 -5.49813e-19)
(0.00974424 0.00493701 -9.02193e-19)
(0.0187865 -0.00176668 0)
(-0.00236927 -0.0292785 0)
(-0.0101274 -0.0265841 3.59288e-20)
(-0.0159953 -0.0211283 -3.59336e-20)
(-0.0189893 -0.0143694 6.8182e-20)
(-0.0193752 -0.00744939 1.00937e-18)
(-0.0173107 -0.00137055 -6.54735e-19)
(-0.0135835 0.00332866 1.3069e-19)
(-0.00870385 0.00616234 -5.0655e-19)
(-0.00348961 0.00698304 -1.25437e-19)
(0.00136357 0.00579295 1.36294e-19)
(0.00658388 0.00344505 8.6103e-19)
(0.0122124 -0.000794626 0)
(-0.00193901 -0.026994 0)
(-0.00848052 -0.0247601 3.60759e-20)
(-0.0135989 -0.0201396 -3.61001e-20)
(-0.0162735 -0.0143331 0)
(-0.0168054 -0.00825938 -6.10805e-19)
(-0.0151499 -0.00285635 -6.48699e-20)
(-0.012078 0.00143157 -2.6457e-19)
(-0.00795898 0.00407395 -6.46809e-19)
(-0.00359665 0.00498734 5.1163e-19)
(0.000394902 0.00415205 0)
(0.00435384 0.00243629 1.68772e-18)
(0.00770937 -7.85776e-05 0)
(-0.0017027 -0.0267283 0)
(-0.00738134 -0.0247845 3.84936e-20)
(-0.0119996 -0.0206138 2.67161e-19)
(-0.0144082 -0.0153154 7.41071e-20)
(-0.0150445 -0.00964288 5.1449e-19)
(-0.013635 -0.00453957 -1.42403e-19)
(-0.0110278 -0.000347302 7.04282e-19)
(-0.00741966 0.00231254 1.10492e-18)
(-0.00366786 0.00344501 5.50367e-19)
(-0.000264541 0.00296281 1.41852e-19)
(0.00281847 0.001798 -2.08574e-19)
(0.00468022 0.000276465 0)
(-0.00154523 -0.0301078 0)
(-0.00699186 -0.0282072 0)
(-0.0112149 -0.0240196 -3.71122e-19)
(-0.0136678 -0.0185625 0)
(-0.0142041 -0.0126614 8.29054e-22)
(-0.0130408 -0.0071785 -1.73588e-19)
(-0.0105319 -0.00258148 1.73585e-19)
(-0.0072551 0.000548119 -6.721e-19)
(-0.00374809 0.00212193 -1.61803e-19)
(-0.00073018 0.00210186 1.55156e-18)
(0.00182911 0.00144169 -1.9462e-18)
(0.00267708 0.000467201 1.063e-17)
(-0.0015832 -0.0402816 0)
(-0.00755671 -0.0381299 2.79727e-19)
(-0.0116844 -0.0331881 -5.516e-19)
(-0.0145722 -0.0265427 1.34509e-19)
(-0.0148824 -0.019324 -1.33451e-18)
(-0.0139185 -0.0122859 9.16164e-19)
(-0.0110873 -0.0063343 -1.01859e-18)
(-0.00783308 -0.00188692 2.53778e-19)
(-0.00412049 0.000612231 -1.98032e-18)
(-0.00119232 0.00136883 -1.76942e-18)
(0.00113761 0.00124015 -3.34184e-19)
(0.00140355 0.000503894 -1.17088e-17)
(-0.00204063 -0.0623096 0)
(-0.0093113 -0.0594749 -1.75836e-18)
(-0.0142547 -0.0526565 1.15807e-18)
(-0.017864 -0.0434117 0)
(-0.0182449 -0.0330475 -2.75854e-19)
(-0.0171752 -0.0226851 -1.37132e-18)
(-0.0137447 -0.0136083 -2.14459e-18)
(-0.00989681 -0.00651278 -1.05126e-18)
(-0.00552805 -0.00202406 5.17327e-18)
(-0.00219655 7.83011e-05 3.64498e-18)
(0.000255336 0.000840722 0)
(0.000185382 0.000369456 0)
(-0.00258083 -0.0941998 -1.1134e-18)
(-0.0115685 -0.0913661 2.34848e-21)
(-0.0178173 -0.082644 0)
(-0.0226393 -0.0702042 1.03758e-18)
(-0.0235097 -0.055817 -1.06523e-18)
(-0.0226868 -0.0410516 -1.04464e-17)
(-0.0188691 -0.0277904 3.49778e-17)
(-0.0145857 -0.0169572 0)
(-0.00957051 -0.00944628 -1.59029e-17)
(-0.00572669 -0.00499248 -1.58321e-17)
(-0.00244123 -0.0020617 -1.77481e-17)
(-0.00168163 -0.00126573 3.78587e-17)
(-0.00385278 0.0916568 4.92188e-18)
(0.0169844 0.0353392 1.22017e-18)
(0.0243468 0.0147394 -7.95465e-19)
(0.0274442 0.00175901 0)
(0.027029 -0.0103702 -9.25627e-19)
(0.0232952 -0.0218603 -5.73875e-19)
(0.0160686 -0.032134 4.91651e-19)
(0.00510212 -0.0402175 3.02132e-19)
(-0.0096501 -0.0445819 0)
(-0.0274834 -0.0430957 5.22649e-20)
(-0.0461102 -0.0332865 1.58771e-19)
(-0.060385 -0.0134094 1.01895e-19)
(-0.0188909 0.0685882 8.47822e-18)
(0.0107017 0.0289962 -3.40912e-19)
(0.0180132 0.0118064 9.93813e-19)
(0.0213708 0.00124119 0)
(0.0212442 -0.00899673 0)
(0.0179573 -0.0187171 9.3563e-19)
(0.0115482 -0.0272342 5.76138e-19)
(0.00200074 -0.0336305 -4.92659e-19)
(-0.0104759 -0.0366268 9.90452e-20)
(-0.025045 -0.0345854 4.52917e-19)
(-0.0396074 -0.0258726 -5.05063e-20)
(-0.0501983 -0.00978645 4.89885e-20)
(-0.0157704 0.0501236 -8.5771e-18)
(0.00770237 0.0218919 0)
(0.0135555 0.00912508 0)
(0.0165526 0.000659304 0)
(0.0165128 -0.00788893 0)
(0.0136153 -0.0160658 9.19163e-19)
(0.00796633 -0.0231187 -1.77897e-18)
(-0.000301955 -0.0282109 4.7615e-19)
(-0.0108528 -0.0302537 0)
(-0.0227964 -0.0280233 -3.94543e-19)
(-0.034322 -0.0204137 -1.70589e-19)
(-0.0423973 -0.00731252 -7.2226e-20)
(-0.0124694 0.0368864 8.34081e-18)
(0.00538283 0.0162928 1.65019e-18)
(0.0102079 0.00692296 -9.76522e-19)
(0.0127354 0.000132097 7.10133e-19)
(0.0126711 -0.00698179 0)
(0.0100958 -0.0138436 1.82331e-19)
(0.00512409 -0.019688 6.449e-19)
(-0.00202756 -0.0237669 -5.60416e-19)
(-0.0109558 -0.0251511 9.3926e-20)
(-0.0208068 -0.0229201 -4.75965e-20)
(-0.0300418 -0.0163461 2.38563e-19)
(-0.0363294 -0.00558593 0)
(-0.0102206 0.0278264 1.92721e-20)
(0.00366566 0.0121728 -1.26135e-18)
(0.00765193 0.00520606 9.50058e-19)
(0.00971149 -0.000293378 -1.56725e-18)
(0.00956013 -0.0062133 6.9757e-19)
(0.00724549 -0.0119849 4.13571e-22)
(0.00285101 -0.0168262 -9.0398e-20)
(-0.00334042 -0.0201359 9.09173e-19)
(-0.0109307 -0.0210459 -9.16119e-20)
(-0.0191001 -0.0189577 0)
(-0.0265847 -0.0132821 2.30455e-20)
(-0.031577 -0.00436365 -1.14679e-19)
(-0.00861879 0.0215058 -7.65611e-18)
(0.00245461 0.00922847 0)
(0.0056968 0.00392304 0)
(0.00732542 -0.000600561 8.59085e-19)
(0.00705342 -0.00555463 -1.54492e-18)
(0.00493826 -0.0104391 -8.70258e-19)
(0.00100806 -0.0144693 8.63377e-20)
(-0.00439406 -0.0171931 -7.1651e-19)
(-0.0109108 -0.0177763 8.97195e-20)
(-0.0177662 -0.0158816 -4.5398e-20)
(-0.0239053 -0.0109831 6.80178e-20)
(-0.0279467 -0.00350105 -2.25775e-20)
(-0.00725451 0.0170274 -1.47515e-17)
(0.00165678 0.00721593 -2.65277e-18)
(0.00425336 0.00302956 3.72705e-19)
(0.0054918 -0.000782548 5.19978e-19)
(0.00506941 -0.00499815 1.37993e-18)
(0.00305427 -0.00918921 1.75264e-19)
(-0.000561098 -0.0126028 -1.75239e-19)
(-0.00540069 -0.0148875 0)
(-0.0111373 -0.0152694 0)
(-0.0170434 -0.013567 3.16409e-19)
(-0.0222047 -0.00930945 4.53189e-20)
(-0.0255759 -0.00291559 9.02881e-20)
(-0.00606508 0.0139492 1.43785e-17)
(0.00122387 0.00599803 -7.39922e-21)
(0.00329145 0.00251693 -1.57915e-18)
(0.00417865 -0.000826805 -2.21426e-18)
(0.00353119 -0.0045399 -7.35925e-19)
(0.00144294 -0.00825168 1.86709e-19)
(-0.00211808 -0.0112553 -2.8094e-19)
(-0.00674113 -0.0132475 9.4267e-20)
(-0.0121099 -0.013527 7.63613e-19)
(-0.0175235 -0.011987 -8.1795e-19)
(-0.022115 -0.00819455 7.22243e-20)
(-0.0251053 -0.00257171 -1.20283e-19)
(-0.00477249 0.0118873 -1.2913e-17)
(0.00122083 0.00548798 2.36621e-18)
(0.00289433 0.00237426 1.88706e-18)
(0.00339542 -0.00069857 -6.68348e-21)
(0.00236947 -0.00422649 0)
(-0.000161257 -0.00766301 9.04022e-19)
(-0.00410979 -0.0105633 1.14283e-19)
(-0.00912057 -0.0123662 9.38001e-22)
(-0.0147551 -0.0126989 -1.96648e-18)
(-0.0203479 -0.0111831 4.65913e-19)
(-0.024921 -0.00769621 0)
(-0.0279246 -0.00248191 1.16588e-19)
(-0.00310313 0.0105608 3.2508e-17)
(0.00186335 0.00564259 0)
(0.00330429 0.00268636 3.48169e-19)
(0.00331006 -0.000368904 5.01359e-18)
(0.00155168 -0.00410987 3.02008e-18)
(-0.00207456 -0.00761578 8.17533e-21)
(-0.00725474 -0.0108023 -5.09409e-19)
(-0.0136877 -0.0126192 1.54482e-18)
(-0.0206975 -0.0131391 1.37922e-18)
(-0.0275762 -0.0115136 6.09379e-19)
(-0.0330314 -0.00804338 8.70363e-20)
(-0.0366517 -0.00278076 0)
(-0.000919572 0.00959411 -2.24313e-17)
(0.00361145 0.00658414 0)
(0.00510838 0.00379981 0)
(0.00451097 0.000428294 -5.59944e-18)
(0.00141007 -0.00400365 -5.62408e-18)
(-0.00429376 -0.00818013 -2.83269e-18)
(-0.0120796 -0.0121552 -2.86527e-18)
(-0.0215489 -0.0144006 -5.4048e-18)
(-0.0317419 -0.0152589 -3.62055e-19)
(-0.0416808 -0.0134867 -1.64342e-18)
(-0.0495132 -0.00957022 1.82865e-19)
(-0.0548526 -0.00370175 0)
(0.00177558 0.00827474 -5.13628e-17)
(0.00730093 0.00849929 0)
(0.0097744 0.00676252 0)
(0.00905331 0.00340164 2.71003e-18)
(0.00474456 -0.00172435 -2.70442e-18)
(-0.00315886 -0.00677166 2.75169e-18)
(-0.014003 -0.0118427 -2.75947e-18)
(-0.0272466 -0.0149129 1.11141e-17)
(-0.0417614 -0.0165447 0)
(-0.056372 -0.0150846 -6.28875e-18)
(-0.068343 -0.0110198 -4.91589e-18)
(-0.0769863 -0.00468398 1.40671e-18)
)
;

boundaryField
{
    rotor
    {
        type            fixedValue;
        value           nonuniform List<vector> 
48
(
(0.00660572 0.201784 -0)
(0.0197889 0.20092 -0)
(0.0328873 0.199195 -0)
(0.0458448 0.196618 -0)
(0.0586061 0.193198 -0)
(0.0711164 0.188952 -0)
(0.0833222 0.183896 -0)
(0.0951712 0.178053 -0)
(0.106613 0.171447 -0)
(0.117597 0.164107 -0)
(0.128079 0.156065 -0)
(0.138012 0.147354 -0)
(0.147354 0.138012 -0)
(0.156065 0.128079 -0)
(0.164107 0.117597 -0)
(0.171447 0.106613 -0)
(0.178053 0.0951712 -0)
(0.183896 0.0833222 -0)
(0.188952 0.0711164 -0)
(0.193198 0.0586061 -0)
(0.196618 0.0458448 -0)
(0.199195 0.0328873 -0)
(0.20092 0.0197889 -0)
(0.201784 0.00660572 -0)
(0 0.214625 0)
(0 0.239875 0)
(0 0.265125 0)
(0 0.290375 0)
(0 0.315625 0)
(0 0.340875 0)
(0 0.366125 0)
(0 0.391375 0)
(0 0.416625 0)
(0 0.441875 0)
(0 0.467125 0)
(0 0.492375 0)
(0.214625 3.8523e-10 -0)
(0.239875 4.30551e-10 -0)
(0.265125 4.75872e-10 -0)
(0.290375 5.21193e-10 -0)
(0.315625 5.66514e-10 -0)
(0.340875 6.11835e-10 -0)
(0.366125 6.57157e-10 -0)
(0.391375 7.02478e-10 -0)
(0.416625 7.47799e-10 -0)
(0.441875 7.9312e-10 -0)
(0.467125 8.38441e-10 -0)
(0.492375 8.83762e-10 -0)
)
;
    }
    stator
    {
        type            noSlip;
    }
    front
    {
        type            empty;
    }
    back
    {
        type            empty;
    }
    procBoundary1to0
    {
        type            processor;
        value           nonuniform List<vector> 
20
(
(-0.551136 0.278699 1.60252e-19)
(-0.452122 0.188625 -1.01261e-20)
(-0.319803 0.103507 -4.30141e-20)
(-0.228321 0.0633002 7.13745e-20)
(-0.166424 0.0461777 -9.64642e-20)
(-0.125177 0.032124 7.00669e-20)
(-0.0968878 0.0234177 4.83249e-20)
(-0.0769309 0.0177508 -9.52093e-20)
(-0.062462 0.0138932 -4.34549e-22)
(-0.0516983 0.0111463 9.32375e-20)
(-0.0435222 0.00911282 -4.58888e-20)
(-0.0371931 0.00755711 -2.23712e-20)
(-0.0322536 0.0063348 -8.99758e-20)
(-0.0284736 0.00535838 8.84894e-20)
(-0.0259867 0.00458116 2.2161e-20)
(-0.0254332 0.00398704 9.53468e-20)
(-0.0282243 0.00358142 -1.15468e-19)
(-0.037013 0.00339146 -1.72633e-19)
(-0.0555371 0.00339109 2.71734e-19)
(-0.0788732 0.00335922 2.77209e-18)
)
;
    }
    procBoundary1to3
    {
        type            processor;
        value           nonuniform List<vector> 
20
(
(0.847862 -0.315798 -1.17782e-19)
(0.34282 -0.357205 0)
(0.193121 -0.2671 -4.64196e-20)
(0.117324 -0.196947 7.00208e-20)
(0.0719902 -0.150122 -6.60914e-20)
(0.0478363 -0.115702 -2.89269e-20)
(0.0332485 -0.0909936 0)
(0.0240637 -0.0731354 0)
(0.0180431 -0.059998 4.58849e-20)
(0.0139439 -0.0501506 -4.49856e-20)
(0.0110552 -0.042625 4.2283e-20)
(0.00895467 -0.0367927 -4.14518e-20)
(0.00738808 -0.0322322 0)
(0.00619807 -0.028766 0)
(0.00529209 -0.0265511 0)
(0.00467342 -0.0263147 0)
(0.00429705 -0.0296241 0)
(0.00433375 -0.0396568 0)
(0.00505933 -0.0612098 0)
(0.00603715 -0.0912731 1.16139e-18)
)
;
    }
}


// ************************************************************************* //
