/*--------------------------------*- C++ -*----------------------------------*\
  =========                 |
  \\      /  F ield         | OpenFOAM: The Open Source CFD Toolbox
   \\    /   O peration     | Website:  https://openfoam.org
    \\  /    A nd           | Version:  6
     \\/     M anipulation  |
\*---------------------------------------------------------------------------*/
FoamFile
{
    version     2.0;
    format      ascii;
    class       volScalarField;
    location    "1000";
    object      k;
}
// * * * * * * * * * * * * * * * * * * * * * * * * * * * * * * * * * * * * * //

dimensions      [0 2 -2 0 0 0 0];

internalField   nonuniform List<scalar> 
3072
(
0.59472
0.723985
0.746096
0.75778
0.754275
0.760258
0.753818
0.759144
0.752578
0.76341
0.777536
0.78009
0.63388
0.854109
0.942126
0.965771
0.971932
0.974135
0.974381
0.974649
0.974138
0.974495
0.974749
0.97496
0.627293
0.881483
0.963858
0.982351
0.987179
0.988613
0.989015
0.989152
0.98913
0.989157
0.989154
0.989154
0.614897
0.886133
0.96781
0.984831
0.989139
0.990357
0.990688
0.990801
0.990811
0.990837
0.990844
0.990816
0.628346
0.891177
0.96952
0.985251
0.989124
0.990158
0.99039
0.990444
0.990439
0.990458
0.990475
0.990534
0.63769
0.896874
0.971153
0.98534
0.988727
0.989551
0.989756
0.989761
0.989775
0.989816
0.989846
0.989808
0.650702
0.904739
0.972958
0.985495
0.988276
0.988965
0.989106
0.989149
0.989092
0.989127
0.989071
0.989046
0.665167
0.913927
0.975243
0.985655
0.987886
0.988441
0.988459
0.988401
0.98841
0.98844
0.988454
0.988345
0.682504
0.924024
0.977697
0.985931
0.987502
0.98786
0.987805
0.98772
0.98781
0.987799
0.987708
0.987723
0.679105
0.927589
0.979595
0.986137
0.987173
0.987338
0.987238
0.987102
0.987149
0.98714
0.987045
0.987063
0.689412
0.931245
0.981496
0.986329
0.986877
0.986858
0.98661
0.98646
0.986545
0.986434
0.986374
0.986377
0.799743
0.958663
0.98477
0.986524
0.986561
0.986298
0.985899
0.98572
0.985771
0.985784
0.985787
0.985874
0.775995
0.77815
0.774654
0.776938
0.779871
0.795169
0.793759
0.789959
0.771973
0.74149
0.696221
0.590314
0.974626
0.974819
0.97472
0.975187
0.975721
0.976808
0.977232
0.977201
0.974536
0.95448
0.854358
0.632853
0.989072
0.989079
0.989057
0.989062
0.989101
0.989227
0.989316
0.989222
0.987872
0.976169
0.89912
0.628239
0.990773
0.990784
0.990765
0.990784
0.990811
0.990828
0.990859
0.990788
0.989713
0.980305
0.911103
0.62982
0.990548
0.990515
0.990474
0.990518
0.990551
0.990539
0.990548
0.990521
0.989671
0.981472
0.916136
0.639405
0.989855
0.989863
0.989815
0.989815
0.989841
0.989811
0.989842
0.98986
0.989194
0.982154
0.920806
0.636078
0.989106
0.989137
0.989044
0.989067
0.989044
0.98906
0.989072
0.98916
0.988806
0.983262
0.926798
0.647707
0.988312
0.988284
0.988268
0.988334
0.988397
0.988476
0.988548
0.988621
0.98844
0.984606
0.93619
0.667462
0.987714
0.987658
0.9877
0.987688
0.987715
0.987884
0.987886
0.987965
0.988258
0.985897
0.943346
0.689985
0.986991
0.986964
0.987034
0.987093
0.987177
0.987291
0.987384
0.987616
0.988093
0.987371
0.95212
0.70901
0.986293
0.986296
0.986445
0.98642
0.986458
0.986629
0.986837
0.987156
0.987914
0.988715
0.964697
0.731299
0.98577
0.985658
0.985801
0.985842
0.985858
0.986109
0.986228
0.986499
0.987433
0.99067
0.997037
0.77559
0.707451
0.742823
0.749179
0.758488
0.753096
0.766541
0.781408
0.778639
0.750728
0.763152
0.785679
0.796564
0.614186
0.856645
0.94213
0.965555
0.971863
0.974749
0.975849
0.97579
0.974385
0.9746
0.975248
0.975621
0.606556
0.880841
0.963693
0.982224
0.987076
0.988574
0.989057
0.989197
0.989114
0.98913
0.989151
0.989164
0.612766
0.886538
0.967821
0.984785
0.989097
0.990333
0.99069
0.990818
0.990846
0.990858
0.990831
0.990839
0.620411
0.891151
0.969597
0.985201
0.989108
0.990099
0.990412
0.990514
0.990584
0.990571
0.99059
0.990581
0.639885
0.898222
0.971217
0.985388
0.988638
0.989564
0.989771
0.989882
0.989866
0.98991
0.989883
0.989881
0.65243
0.90546
0.973071
0.985459
0.988268
0.988939
0.989128
0.989098
0.989087
0.989137
0.989073
0.989022
0.671815
0.915592
0.97553
0.98566
0.987823
0.988321
0.988436
0.988435
0.988406
0.988426
0.98833
0.988225
0.686566
0.925982
0.978132
0.985986
0.98748
0.987744
0.987766
0.98774
0.987796
0.987818
0.987655
0.987511
0.685486
0.930166
0.980162
0.986191
0.987257
0.987343
0.987266
0.987236
0.987191
0.987127
0.987037
0.987071
0.691648
0.933389
0.98197
0.986438
0.986961
0.986807
0.986632
0.986516
0.986406
0.98638
0.986383
0.986514
0.802632
0.9609
0.985287
0.986595
0.986493
0.98634
0.986064
0.985772
0.985689
0.985705
0.985774
0.985975
0.773888
0.760373
0.77787
0.780525
0.783661
0.799895
0.798265
0.794533
0.775333
0.744011
0.700073
0.595642
0.974646
0.974336
0.974971
0.975614
0.976223
0.977394
0.977892
0.977912
0.975166
0.954965
0.854723
0.637526
0.989081
0.989068
0.989092
0.989147
0.989236
0.989378
0.989411
0.989308
0.987961
0.976243
0.899301
0.628717
0.990803
0.990802
0.990813
0.990823
0.990838
0.990871
0.990882
0.990803
0.989715
0.980245
0.90952
0.616756
0.99057
0.990541
0.990565
0.990574
0.99061
0.990602
0.990681
0.990544
0.989696
0.981288
0.914956
0.631897
0.989832
0.989882
0.989846
0.989877
0.98979
0.989894
0.989909
0.989971
0.989167
0.981952
0.920401
0.637292
0.989067
0.989095
0.989106
0.989012
0.989025
0.989078
0.989252
0.989232
0.988762
0.983087
0.924968
0.647876
0.988203
0.988215
0.988214
0.988226
0.988249
0.988356
0.988532
0.988624
0.988456
0.984267
0.93572
0.66496
0.987478
0.987458
0.987468
0.9875
0.987572
0.987695
0.987911
0.988114
0.988242
0.985961
0.942172
0.688381
0.987058
0.986962
0.987001
0.987055
0.987043
0.987107
0.987386
0.987654
0.988042
0.987274
0.951464
0.695732
0.986429
0.986381
0.986536
0.986497
0.986491
0.986568
0.986794
0.987053
0.987775
0.98883
0.964032
0.726898
0.985993
0.985879
0.985962
0.985856
0.985854
0.985994
0.986198
0.986584
0.987478
0.990524
0.996559
0.782186
0.594898
0.724039
0.746174
0.757706
0.754264
0.76017
0.753822
0.765308
0.779069
0.781889
0.777305
0.780102
0.634036
0.854099
0.942099
0.965746
0.971902
0.974104
0.974361
0.975037
0.975296
0.975372
0.974856
0.974923
0.626785
0.881516
0.963865
0.982355
0.987166
0.988583
0.988989
0.989168
0.989203
0.989182
0.989088
0.989106
0.627487
0.887304
0.967932
0.984844
0.989144
0.990354
0.990671
0.990786
0.990796
0.990792
0.990806
0.990832
0.639478
0.89215
0.969583
0.985231
0.989088
0.990152
0.99043
0.990486
0.990459
0.990468
0.990455
0.990468
0.639055
0.896913
0.97102
0.985272
0.988677
0.989507
0.989721
0.989731
0.989763
0.989802
0.989819
0.989795
0.650177
0.904417
0.972797
0.98537
0.98819
0.988895
0.989017
0.989029
0.98901
0.989098
0.989034
0.988995
0.65446
0.912691
0.974981
0.985585
0.987848
0.988399
0.988427
0.988338
0.988319
0.988359
0.98833
0.988326
0.676818
0.923474
0.977567
0.985877
0.987467
0.987817
0.987847
0.98776
0.987773
0.987683
0.987668
0.987722
0.681209
0.928062
0.979645
0.986091
0.987129
0.987286
0.987272
0.987177
0.987171
0.98706
0.986994
0.987095
0.69096
0.932197
0.981685
0.986376
0.9868
0.986721
0.986739
0.986683
0.986567
0.986528
0.986409
0.986396
0.79989
0.95979
0.984863
0.986588
0.986587
0.986424
0.986239
0.986069
0.986051
0.986026
0.985886
0.985932
0.78218
0.792899
0.771227
0.757689
0.780365
0.795409
0.794039
0.790198
0.772188
0.741666
0.696526
0.590744
0.974958
0.975376
0.974607
0.974491
0.975627
0.976798
0.977243
0.977215
0.974552
0.954513
0.854396
0.633263
0.989084
0.9891
0.989071
0.989101
0.989185
0.989257
0.989286
0.989196
0.987867
0.976198
0.899191
0.627116
0.990802
0.990795
0.990784
0.990814
0.990837
0.990862
0.99085
0.990748
0.989687
0.980311
0.909866
0.616957
0.990489
0.990504
0.990463
0.99044
0.990451
0.99049
0.990537
0.990519
0.989662
0.981448
0.915397
0.630048
0.989754
0.989702
0.989712
0.989706
0.989737
0.989797
0.989873
0.989885
0.989207
0.98222
0.920755
0.635998
0.989013
0.989049
0.989078
0.989077
0.989046
0.989145
0.98916
0.989219
0.988835
0.983228
0.926585
0.647361
0.988292
0.988234
0.988315
0.988369
0.988375
0.988382
0.988488
0.988656
0.988475
0.984581
0.935983
0.666052
0.987674
0.98761
0.987587
0.98769
0.987755
0.987765
0.987899
0.988091
0.988311
0.985899
0.942924
0.688404
0.987082
0.987031
0.986942
0.986919
0.986976
0.987084
0.987337
0.987664
0.988187
0.987551
0.951856
0.707388
0.986396
0.986446
0.986512
0.986565
0.986493
0.986475
0.986758
0.987106
0.987974
0.988827
0.96419
0.733242
0.985819
0.985789
0.985896
0.986011
0.986057
0.986015
0.98621
0.986571
0.987463
0.990646
0.996506
0.780038
0.59465
0.722754
0.745734
0.756412
0.753569
0.758069
0.758004
0.786201
0.790174
0.779662
0.775007
0.777805
0.633247
0.853825
0.942016
0.965589
0.971746
0.973845
0.974441
0.975649
0.975565
0.975078
0.974524
0.974583
0.625923
0.881047
0.963752
0.982317
0.98714
0.98856
0.988989
0.989195
0.989182
0.98913
0.989087
0.989081
0.614412
0.885894
0.967752
0.984808
0.989131
0.990342
0.990665
0.990789
0.990818
0.990852
0.99086
0.990864
0.627571
0.890974
0.969509
0.985209
0.989138
0.99013
0.990436
0.990517
0.990571
0.990564
0.990576
0.990577
0.640825
0.897432
0.971078
0.985403
0.988707
0.989626
0.989841
0.989948
0.989926
0.989944
0.989898
0.989921
0.644115
0.903796
0.972819
0.985443
0.988341
0.989059
0.989176
0.98917
0.989156
0.989081
0.989142
0.989165
0.65492
0.912855
0.975142
0.985671
0.987915
0.988416
0.988516
0.988511
0.98852
0.98841
0.988345
0.988438
0.657855
0.922098
0.977493
0.985938
0.98757
0.987923
0.987942
0.987841
0.987871
0.987854
0.987799
0.987799
0.669625
0.926724
0.97966
0.98612
0.987153
0.987355
0.987297
0.987154
0.987229
0.987226
0.987197
0.987137
0.691523
0.932273
0.981734
0.98639
0.986914
0.986868
0.986711
0.986558
0.986596
0.986596
0.986589
0.986568
0.80198
0.960124
0.985225
0.986533
0.98644
0.986187
0.986042
0.985974
0.985889
0.985799
0.985812
0.985973
0.77462
0.777391
0.780239
0.79647
0.790577
0.780123
0.781662
0.791331
0.773799
0.743545
0.699239
0.593294
0.974313
0.974581
0.97494
0.975998
0.976162
0.976356
0.976885
0.977419
0.974865
0.954907
0.855002
0.635513
0.989016
0.989064
0.989128
0.98924
0.989239
0.989286
0.989334
0.989266
0.987943
0.976296
0.899481
0.627862
0.990818
0.990825
0.990831
0.990847
0.990852
0.990867
0.990908
0.990833
0.98973
0.980301
0.909619
0.61653
0.990584
0.99056
0.990577
0.990563
0.990586
0.990578
0.990639
0.990523
0.989689
0.981309
0.914885
0.630453
0.989886
0.989929
0.989902
0.989921
0.989813
0.989896
0.98987
0.989961
0.98921
0.982058
0.920409
0.635034
0.989163
0.989156
0.989154
0.989094
0.989096
0.989115
0.989273
0.989272
0.988809
0.983185
0.925158
0.64741
0.988476
0.988367
0.988267
0.98825
0.988278
0.988394
0.988554
0.988644
0.988472
0.98434
0.935815
0.66561
0.987775
0.987727
0.987752
0.987751
0.987756
0.987814
0.987997
0.98809
0.988226
0.985993
0.942495
0.689293
0.987064
0.987016
0.987062
0.98711
0.987109
0.987264
0.987444
0.987613
0.988144
0.987289
0.95175
0.701408
0.98646
0.986398
0.986497
0.986527
0.986557
0.986738
0.9868
0.987
0.987847
0.988844
0.963641
0.726447
0.985888
0.985802
0.985939
0.985925
0.985966
0.986216
0.986336
0.986537
0.987466
0.990526
0.996289
0.77835
0.971125
0.9919
0.988188
0.986555
0.985968
0.985808
0.985474
0.985145
0.985243
0.985326
0.985405
0.985285
0.996809
0.990841
0.987348
0.986051
0.985518
0.985215
0.984938
0.984663
0.984767
0.984839
0.984888
0.984745
0.99117
0.988002
0.986043
0.985336
0.985136
0.984733
0.98431
0.984348
0.984424
0.984311
0.984446
0.984461
0.987154
0.985675
0.985052
0.984709
0.984407
0.984302
0.984038
0.984006
0.984201
0.983978
0.983932
0.984097
0.985221
0.985387
0.985439
0.985306
0.985321
0.985615
0.985744
0.985975
0.986888
0.990092
1.00171
0.944724
0.984713
0.984846
0.984977
0.985077
0.984894
0.985007
0.985231
0.98537
0.985919
0.987947
0.99301
0.996829
0.984385
0.984494
0.984552
0.984541
0.984454
0.984522
0.98485
0.984838
0.985157
0.986091
0.988222
0.991056
0.983965
0.983788
0.983903
0.984024
0.983991
0.984051
0.984376
0.984456
0.984548
0.985072
0.985726
0.986846
0.973091
0.992493
0.988491
0.986611
0.985935
0.985725
0.985575
0.985377
0.985297
0.985248
0.985253
0.985459
0.997726
0.991167
0.987494
0.986034
0.985528
0.985133
0.984968
0.984849
0.984796
0.984809
0.984692
0.984931
0.991348
0.988122
0.986284
0.985443
0.984946
0.984426
0.984197
0.984294
0.984342
0.984277
0.98425
0.984514
0.987294
0.985876
0.985033
0.984687
0.984287
0.983834
0.983705
0.983848
0.983933
0.984051
0.984113
0.984162
0.985502
0.985363
0.985405
0.985307
0.985327
0.985448
0.9855
0.985829
0.986779
0.990052
1.00114
0.943783
0.984995
0.984838
0.98496
0.985034
0.984988
0.984962
0.984981
0.985183
0.985797
0.987783
0.992815
0.996624
0.984427
0.984214
0.984379
0.984511
0.98447
0.984497
0.984706
0.984705
0.985051
0.98602
0.988164
0.991117
0.984124
0.984109
0.984069
0.984034
0.984035
0.984196
0.984242
0.984194
0.984385
0.984752
0.985592
0.986765
0.971766
0.991727
0.988034
0.986552
0.986177
0.985821
0.985545
0.985571
0.985548
0.985455
0.985355
0.985429
0.99704
0.990698
0.987289
0.985999
0.985678
0.985439
0.98503
0.984752
0.984848
0.98494
0.98487
0.984906
0.991213
0.987917
0.986228
0.985317
0.985069
0.984988
0.984573
0.984297
0.9843
0.984439
0.98459
0.984412
0.987192
0.985861
0.984984
0.984624
0.984385
0.984252
0.984102
0.984
0.984153
0.984156
0.984039
0.984038
0.98531
0.985252
0.985472
0.985503
0.98547
0.985477
0.985551
0.985865
0.986817
0.990074
1.00138
0.944947
0.984897
0.984781
0.984856
0.984827
0.984858
0.984966
0.985133
0.985435
0.985913
0.987915
0.992807
0.997219
0.984135
0.984231
0.984322
0.984444
0.984552
0.984512
0.984683
0.984833
0.985088
0.986127
0.988088
0.991021
0.983846
0.983821
0.983819
0.983734
0.983871
0.983997
0.984279
0.98422
0.984366
0.984834
0.985617
0.986757
0.971981
0.992187
0.988365
0.986427
0.98583
0.985726
0.985598
0.985331
0.985294
0.98533
0.985282
0.985462
0.997549
0.991021
0.987321
0.985726
0.985325
0.985266
0.985117
0.984911
0.984757
0.984829
0.984837
0.984881
0.991394
0.98803
0.985874
0.985147
0.984978
0.984675
0.984276
0.984349
0.984393
0.984371
0.984577
0.984674
0.987194
0.985915
0.984808
0.984409
0.984479
0.984176
0.983785
0.983865
0.983961
0.983935
0.984159
0.984261
0.985509
0.985289
0.985121
0.985253
0.985377
0.985638
0.985812
0.986048
0.986936
0.99014
1.00114
0.943343
0.984792
0.984771
0.984697
0.984704
0.984843
0.984953
0.985047
0.985455
0.986008
0.987899
0.992745
0.996363
0.984372
0.984352
0.984354
0.984175
0.984286
0.984439
0.984588
0.984882
0.985156
0.98618
0.988052
0.990763
0.98393
0.983695
0.98375
0.983869
0.983944
0.983954
0.983954
0.984279
0.984537
0.984859
0.985777
0.986857
0.985067
0.984308
0.983938
0.983738
0.983626
0.983564
0.983456
0.983436
0.983462
0.983411
0.983362
0.983096
0.984009
0.98348
0.983271
0.983169
0.983128
0.983079
0.983034
0.983018
0.983014
0.982979
0.982577
0.980592
0.983379
0.98292
0.982795
0.982738
0.982726
0.98269
0.982671
0.982663
0.982662
0.982462
0.980236
0.96971
0.982922
0.982484
0.982395
0.982376
0.982366
0.982344
0.982344
0.982337
0.982308
0.981518
0.973503
0.923844
0.983024
0.983226
0.983333
0.983382
0.98341
0.983494
0.983594
0.983625
0.983697
0.9839
0.984233
0.984691
0.980266
0.982185
0.98283
0.982967
0.982988
0.983049
0.983078
0.98312
0.983141
0.983234
0.983362
0.983571
0.968517
0.979031
0.982016
0.982547
0.982618
0.982666
0.982677
0.982716
0.982723
0.98274
0.9828
0.982925
0.919432
0.970746
0.980599
0.982087
0.982277
0.982321
0.982335
0.982371
0.982367
0.982373
0.98238
0.982471
0.985093
0.984317
0.983934
0.983738
0.983553
0.983391
0.983344
0.983343
0.983378
0.983408
0.983375
0.983108
0.984004
0.983454
0.983229
0.98315
0.983067
0.983002
0.982974
0.982957
0.982963
0.982957
0.982576
0.980582
0.983366
0.982885
0.982753
0.982716
0.982677
0.982638
0.982619
0.982616
0.982606
0.982428
0.980208
0.96957
0.98292
0.982459
0.982358
0.982356
0.982343
0.982309
0.982308
0.982308
0.982258
0.981488
0.973446
0.923082
0.983075
0.983317
0.983392
0.983414
0.983452
0.983502
0.98351
0.983526
0.983635
0.983842
0.984184
0.984687
0.980284
0.982218
0.98285
0.982974
0.98301
0.983016
0.983031
0.983082
0.983148
0.983241
0.98339
0.983608
0.968558
0.979054
0.982033
0.982552
0.982631
0.982642
0.982656
0.982701
0.98273
0.982778
0.982835
0.982972
0.919799
0.970744
0.980609
0.982093
0.982284
0.98231
0.982324
0.982363
0.982373
0.982395
0.982419
0.982519
0.985068
0.984325
0.983905
0.983734
0.983636
0.983551
0.983484
0.983426
0.983443
0.983446
0.983393
0.983081
0.984021
0.983478
0.983255
0.983161
0.983131
0.983084
0.983043
0.983012
0.983016
0.982998
0.982586
0.980586
0.983397
0.982917
0.982799
0.982732
0.98273
0.982692
0.982671
0.982661
0.982656
0.982464
0.980241
0.969724
0.98295
0.982493
0.982416
0.982374
0.982382
0.982352
0.98234
0.982337
0.982301
0.98151
0.973486
0.923784
0.982987
0.983233
0.983329
0.983336
0.983375
0.983448
0.98355
0.983543
0.98365
0.983849
0.984188
0.984677
0.980262
0.982187
0.982827
0.982961
0.982981
0.983017
0.98304
0.983071
0.983127
0.98323
0.983363
0.983585
0.968541
0.97904
0.982022
0.982546
0.982615
0.982647
0.98265
0.982682
0.982716
0.982745
0.982815
0.982945
0.919481
0.970756
0.980608
0.982091
0.982281
0.98231
0.982318
0.982352
0.98236
0.982364
0.982392
0.982488
0.985061
0.984341
0.983846
0.983662
0.983608
0.983471
0.983358
0.983365
0.983403
0.983409
0.983405
0.983138
0.984
0.983466
0.983227
0.983121
0.983078
0.983019
0.982983
0.982965
0.982979
0.982973
0.982602
0.980584
0.98337
0.98291
0.98276
0.98269
0.982672
0.982647
0.982641
0.982622
0.982623
0.982437
0.980226
0.969637
0.982924
0.982488
0.98237
0.982329
0.982328
0.98231
0.982308
0.982298
0.982266
0.981482
0.973474
0.923141
0.983009
0.983208
0.983303
0.983333
0.983375
0.983428
0.983467
0.983565
0.983685
0.983876
0.984241
0.984686
0.98026
0.982177
0.982811
0.982932
0.98297
0.983007
0.983033
0.983077
0.983154
0.983246
0.983392
0.983595
0.968553
0.979036
0.982019
0.982535
0.982613
0.98264
0.982657
0.982694
0.982722
0.982772
0.982831
0.982944
0.919887
0.970743
0.980607
0.982086
0.982279
0.982312
0.98233
0.982352
0.982356
0.982388
0.982413
0.982505
0.982569
0.982143
0.982079
0.982065
0.982058
0.982042
0.982045
0.982037
0.981938
0.980196
0.95945
0.763402
0.982247
0.981845
0.9818
0.98178
0.981778
0.981768
0.981767
0.98176
0.981625
0.979429
0.952447
0.702755
0.981979
0.981578
0.981532
0.981525
0.981521
0.981514
0.981514
0.981508
0.981364
0.979121
0.951706
0.699753
0.981725
0.981335
0.981286
0.981285
0.981283
0.981274
0.981278
0.981274
0.981145
0.979039
0.952831
0.704202
0.981496
0.98111
0.981067
0.98107
0.981068
0.98106
0.981061
0.981057
0.980941
0.97902
0.954364
0.707867
0.981271
0.980898
0.980857
0.98086
0.980866
0.980857
0.98086
0.980856
0.980758
0.979024
0.955901
0.712637
0.981011
0.980631
0.980584
0.980593
0.980598
0.980591
0.980592
0.980585
0.980504
0.97893
0.957254
0.717169
0.979866
0.979386
0.979319
0.979326
0.979331
0.979327
0.979327
0.97932
0.979253
0.977788
0.957212
0.722035
0.973404
0.972593
0.972421
0.972455
0.97243
0.972434
0.972442
0.972413
0.972378
0.970803
0.949852
0.723874
0.944056
0.942131
0.941787
0.941764
0.941732
0.941744
0.941735
0.941725
0.94171
0.940011
0.916693
0.707637
0.82682
0.822343
0.82164
0.821385
0.821132
0.82097
0.820847
0.820747
0.820803
0.819445
0.797278
0.644916
0.52374
0.523324
0.522672
0.521811
0.520844
0.519867
0.518866
0.517831
0.517253
0.516964
0.511804
0.472011
0.762726
0.956872
0.978887
0.981637
0.981962
0.982008
0.982022
0.982056
0.982043
0.982028
0.982049
0.982119
0.706376
0.949818
0.977908
0.98129
0.981685
0.981741
0.981759
0.981781
0.981759
0.981747
0.981747
0.981819
0.70233
0.948803
0.977597
0.981035
0.981433
0.981489
0.981512
0.98152
0.981507
0.981485
0.981489
0.981556
0.704443
0.949754
0.977583
0.980838
0.981207
0.981258
0.981282
0.981288
0.981269
0.981261
0.981252
0.981315
0.708868
0.951267
0.977673
0.980671
0.980998
0.981039
0.981059
0.981064
0.981049
0.981027
0.981029
0.981092
0.713351
0.952843
0.977782
0.980518
0.980809
0.980842
0.980854
0.980865
0.980845
0.980833
0.980826
0.980888
0.718148
0.954292
0.977801
0.980289
0.980544
0.980576
0.980574
0.980594
0.980569
0.980577
0.980564
0.980611
0.722977
0.954429
0.976749
0.979061
0.979292
0.979329
0.979322
0.979343
0.979317
0.979335
0.979317
0.979354
0.72578
0.947541
0.969828
0.972194
0.972411
0.972495
0.972435
0.972537
0.972414
0.972552
0.97247
0.972514
0.710205
0.915452
0.939126
0.941577
0.941837
0.941945
0.941931
0.942006
0.941911
0.942069
0.941999
0.942
0.647507
0.79773
0.818921
0.820981
0.821274
0.821562
0.821622
0.821688
0.821791
0.821955
0.82173
0.821606
0.473648
0.512411
0.517061
0.51738
0.517593
0.517966
0.518521
0.518988
0.520543
0.520826
0.520245
0.520603
0.982554
0.982119
0.982043
0.982039
0.982027
0.982011
0.982014
0.982009
0.981895
0.98017
0.959381
0.762042
0.982233
0.981819
0.981755
0.981765
0.981751
0.981747
0.981749
0.981749
0.9816
0.979413
0.952425
0.70208
0.981948
0.981553
0.981514
0.981507
0.981498
0.981493
0.981491
0.981492
0.981345
0.979108
0.951664
0.698411
0.981695
0.98131
0.98127
0.98127
0.981271
0.981265
0.981263
0.981267
0.981136
0.979033
0.952784
0.702413
0.981467
0.981095
0.981061
0.981062
0.98106
0.981054
0.981046
0.981049
0.980932
0.979011
0.954341
0.706913
0.981259
0.980892
0.980855
0.980863
0.980864
0.980863
0.980852
0.980853
0.980751
0.97902
0.955897
0.712116
0.980998
0.980626
0.980589
0.98058
0.980594
0.980586
0.980587
0.98058
0.980495
0.978926
0.957261
0.716957
0.979857
0.979382
0.979319
0.979307
0.979329
0.979314
0.979325
0.979316
0.979246
0.977785
0.957219
0.721933
0.973432
0.972558
0.972445
0.972347
0.972461
0.972371
0.972446
0.972404
0.972357
0.970813
0.949832
0.724114
0.944086
0.942068
0.9417
0.941542
0.94161
0.941579
0.941665
0.941654
0.941632
0.939949
0.916556
0.707318
0.826803
0.822027
0.82121
0.820718
0.820346
0.820479
0.820662
0.820535
0.82059
0.819212
0.796818
0.643948
0.52339
0.522558
0.52191
0.521336
0.519893
0.519102
0.519085
0.517954
0.517422
0.517106
0.511947
0.4722
0.762199
0.956797
0.97889
0.981643
0.981971
0.982004
0.982022
0.982052
0.982057
0.982057
0.982066
0.982149
0.704673
0.949705
0.977901
0.981287
0.981692
0.981737
0.981747
0.98177
0.981766
0.98177
0.98177
0.981853
0.701076
0.948721
0.977592
0.981034
0.981436
0.981488
0.981488
0.981507
0.981505
0.981508
0.981514
0.98158
0.703731
0.949701
0.977579
0.980836
0.981205
0.981254
0.981256
0.981271
0.981268
0.981269
0.981269
0.981342
0.708279
0.951233
0.977671
0.980671
0.980994
0.981036
0.981044
0.981052
0.981053
0.981049
0.981056
0.981112
0.71283
0.952812
0.97778
0.980513
0.980801
0.98084
0.980849
0.980846
0.980856
0.980848
0.980845
0.980911
0.717701
0.954267
0.977802
0.980287
0.980537
0.980576
0.980577
0.980577
0.980581
0.980575
0.98058
0.980625
0.722425
0.954401
0.976751
0.97906
0.979289
0.979326
0.979325
0.979331
0.979329
0.97933
0.979327
0.97937
0.725065
0.947516
0.969841
0.972192
0.972425
0.972482
0.972456
0.972507
0.97246
0.972525
0.972482
0.972535
0.709608
0.915468
0.939159
0.941604
0.941863
0.941967
0.941947
0.941987
0.941988
0.9421
0.942028
0.942002
0.647346
0.797822
0.818952
0.821017
0.821324
0.821638
0.821785
0.82177
0.822178
0.82266
0.822058
0.821595
0.473286
0.511996
0.516679
0.517185
0.51757
0.518048
0.519359
0.519769
0.520899
0.522523
0.521505
0.520556
0.982582
0.982145
0.982082
0.982063
0.982072
0.982046
0.982037
0.98203
0.981926
0.980182
0.959421
0.763251
0.982266
0.981841
0.981783
0.981775
0.981788
0.981761
0.981756
0.981752
0.981619
0.979418
0.952431
0.702681
0.981989
0.981576
0.981526
0.981516
0.98153
0.981508
0.981504
0.981502
0.981364
0.979115
0.951693
0.699694
0.98173
0.981337
0.981285
0.981283
0.981291
0.981276
0.981274
0.981272
0.981146
0.979036
0.952822
0.704107
0.981501
0.981112
0.981063
0.981065
0.981071
0.981062
0.981058
0.981057
0.980942
0.979018
0.954356
0.707818
0.981282
0.980906
0.980859
0.980861
0.980865
0.980856
0.980854
0.980854
0.980756
0.979022
0.955897
0.712631
0.981019
0.980637
0.980586
0.98059
0.980593
0.980587
0.980585
0.980582
0.9805
0.978927
0.957251
0.717149
0.979872
0.979392
0.979331
0.979325
0.979325
0.979323
0.979322
0.979317
0.97925
0.977786
0.957209
0.721995
0.973427
0.972591
0.972443
0.972452
0.972427
0.972424
0.972437
0.972408
0.972376
0.970802
0.949849
0.723846
0.94412
0.942126
0.941834
0.941763
0.941717
0.941698
0.941711
0.941713
0.941703
0.940006
0.916685
0.707597
0.826959
0.822305
0.82161
0.820935
0.820803
0.820788
0.820725
0.820751
0.820805
0.81943
0.797259
0.644858
0.523742
0.523222
0.522437
0.520598
0.519702
0.519713
0.518778
0.51799
0.517416
0.516928
0.511781
0.471999
0.762781
0.956868
0.978896
0.981641
0.981967
0.982007
0.982014
0.982049
0.982031
0.982024
0.982042
0.982129
0.706248
0.949811
0.977912
0.98129
0.981687
0.98174
0.981746
0.981775
0.981752
0.981751
0.981749
0.981827
0.702169
0.948798
0.977598
0.981038
0.981438
0.981489
0.981501
0.981518
0.981498
0.981486
0.981485
0.981557
0.70428
0.949753
0.977583
0.980842
0.981214
0.981259
0.981279
0.981288
0.981272
0.981259
0.98125
0.981316
0.70879
0.95127
0.977675
0.980672
0.981006
0.981042
0.981064
0.981064
0.981053
0.981035
0.98103
0.981093
0.713337
0.952848
0.977784
0.980518
0.980809
0.980841
0.98086
0.980857
0.980853
0.980838
0.980831
0.980888
0.718126
0.954294
0.977803
0.980292
0.98054
0.980573
0.98058
0.980589
0.980575
0.980569
0.980559
0.98061
0.722933
0.954429
0.976751
0.979063
0.979289
0.979325
0.979326
0.979344
0.979322
0.979335
0.979316
0.979354
0.725716
0.947541
0.969832
0.972195
0.972413
0.972489
0.972442
0.972535
0.972426
0.97255
0.972475
0.97252
0.710138
0.915458
0.939131
0.941584
0.941844
0.941932
0.941954
0.942029
0.941931
0.94208
0.942023
0.942033
0.647475
0.797743
0.818924
0.820986
0.821301
0.821498
0.821834
0.821894
0.821685
0.821922
0.821829
0.821716
0.473581
0.512325
0.516978
0.517295
0.51756
0.518011
0.519113
0.519545
0.519723
0.520101
0.520356
0.520664
0.982552
0.982142
0.982046
0.98202
0.982029
0.982014
0.982004
0.981999
0.981897
0.980169
0.959424
0.762205
0.982232
0.981837
0.981762
0.981743
0.981761
0.981743
0.981734
0.981732
0.981595
0.979406
0.952468
0.701899
0.981953
0.981566
0.981514
0.9815
0.98151
0.981487
0.981484
0.981481
0.981343
0.979108
0.951685
0.698685
0.981703
0.981319
0.981275
0.981273
0.981279
0.981258
0.98126
0.981253
0.98113
0.979028
0.952811
0.70251
0.981471
0.981102
0.981066
0.98106
0.981065
0.981044
0.981052
0.981039
0.980931
0.979011
0.954351
0.707043
0.981259
0.980901
0.98087
0.980867
0.980866
0.980849
0.980854
0.980847
0.980748
0.979015
0.955902
0.711987
0.981
0.980631
0.980598
0.980583
0.980596
0.980574
0.980588
0.980575
0.980496
0.978923
0.957257
0.716944
0.97986
0.979383
0.979325
0.979309
0.97933
0.97931
0.979326
0.979311
0.979246
0.977779
0.957216
0.72179
0.97344
0.972561
0.972443
0.972344
0.972474
0.97237
0.972466
0.972387
0.972374
0.970796
0.949846
0.723913
0.944123
0.942103
0.941718
0.941608
0.941708
0.941649
0.941709
0.941655
0.941665
0.939945
0.916581
0.707188
0.826917
0.822169
0.821358
0.821101
0.820994
0.82081
0.820681
0.820535
0.820656
0.819232
0.796869
0.643928
0.523512
0.522749
0.52209
0.521565
0.520842
0.519913
0.519023
0.517926
0.517383
0.516991
0.511858
0.472085
0.762172
0.956794
0.978889
0.981637
0.981967
0.982009
0.982018
0.982034
0.982033
0.982059
0.982072
0.982138
0.70454
0.94969
0.977898
0.981284
0.981681
0.98173
0.981733
0.981753
0.98175
0.981768
0.981764
0.981846
0.700996
0.948711
0.977589
0.981034
0.98143
0.981475
0.981478
0.981505
0.981502
0.981505
0.981512
0.98157
0.703719
0.949702
0.977577
0.980833
0.981204
0.981242
0.981248
0.981272
0.981273
0.981266
0.981265
0.981337
0.70825
0.951233
0.977668
0.980669
0.980995
0.981037
0.981033
0.981052
0.981056
0.981047
0.981056
0.981104
0.712833
0.952813
0.977778
0.980512
0.980805
0.98084
0.980839
0.980849
0.980854
0.980843
0.980844
0.980906
0.717691
0.954266
0.977798
0.980288
0.98054
0.980576
0.980566
0.980586
0.980574
0.980573
0.98058
0.980623
0.722441
0.954401
0.976748
0.979062
0.979289
0.979326
0.979317
0.979338
0.979314
0.979328
0.979323
0.979368
0.725016
0.947526
0.969828
0.972207
0.972411
0.972501
0.972437
0.972536
0.97243
0.972538
0.972483
0.972529
0.709697
0.915494
0.939164
0.941632
0.94187
0.941981
0.941962
0.942056
0.941925
0.942045
0.942011
0.941978
0.647552
0.797891
0.818995
0.821089
0.821379
0.821632
0.821935
0.821968
0.821648
0.822136
0.821888
0.821557
0.473329
0.511997
0.516708
0.517165
0.517622
0.518009
0.519412
0.519767
0.519719
0.521292
0.521407
0.520559
)
;

boundaryField
{
    rotor
    {
        type            kqRWallFunction;
        value           nonuniform List<scalar> 
192
(
0.59472
0.723985
0.746096
0.75778
0.754275
0.760258
0.753818
0.759144
0.752578
0.76341
0.777536
0.78009
0.775995
0.77815
0.774654
0.776938
0.779871
0.795169
0.793759
0.789959
0.771973
0.74149
0.696221
0.590314
0.707451
0.742823
0.749179
0.758488
0.753096
0.766541
0.781408
0.778639
0.750728
0.763152
0.785679
0.796564
0.773888
0.760373
0.77787
0.780525
0.783661
0.799895
0.798265
0.794533
0.775333
0.744011
0.700073
0.595642
0.594898
0.724039
0.746174
0.757706
0.754264
0.76017
0.753822
0.765308
0.779069
0.781889
0.777305
0.780102
0.78218
0.792899
0.771227
0.757689
0.780365
0.795409
0.794039
0.790198
0.772188
0.741666
0.696526
0.590744
0.59465
0.722754
0.745734
0.756412
0.753569
0.758069
0.758004
0.786201
0.790174
0.779662
0.775007
0.777805
0.77462
0.777391
0.780239
0.79647
0.790577
0.780123
0.781662
0.791331
0.773799
0.743545
0.699239
0.593294
0.59472
0.63388
0.627293
0.614897
0.628346
0.63769
0.650702
0.665167
0.682504
0.679105
0.689412
0.799743
0.593294
0.635513
0.627862
0.61653
0.630453
0.635034
0.64741
0.66561
0.689293
0.701408
0.726447
0.77835
0.707451
0.614186
0.606556
0.612766
0.620411
0.639885
0.65243
0.671815
0.686566
0.685486
0.691648
0.802632
0.590314
0.632853
0.628239
0.62982
0.639405
0.636078
0.647707
0.667462
0.689985
0.70901
0.731299
0.77559
0.594898
0.634036
0.626785
0.627487
0.639478
0.639055
0.650177
0.65446
0.676818
0.681209
0.69096
0.79989
0.595642
0.637526
0.628717
0.616756
0.631897
0.637292
0.647876
0.66496
0.688381
0.695732
0.726898
0.782186
0.59465
0.633247
0.625923
0.614412
0.627571
0.640825
0.644115
0.65492
0.657855
0.669625
0.691523
0.80198
0.590744
0.633263
0.627116
0.616957
0.630048
0.635998
0.647361
0.666052
0.688404
0.707388
0.733242
0.780038
)
;
    }
    stator
    {
        type            kqRWallFunction;
        value           nonuniform List<scalar> 
192
(
0.52374
0.523324
0.522672
0.521811
0.520844
0.519867