/*--------------------------------*- C++ -*----------------------------------*\
  =========                 |
  \\      /  F ield         | OpenFOAM: The Open Source CFD Toolbox
   \\    /   O peration     | Website:  https://openfoam.org
    \\  /    A nd           | Version:  6
     \\/     M anipulation  |
\*---------------------------------------------------------------------------*/
FoamFile
{
    version     2.0;
    format      ascii;
    class       surfaceScalarField;
    location    "1000";
    object      phi;
}
// * * * * * * * * * * * * * * * * * * * * * * * * * * * * * * * * * * * * * //

dimensions      [0 3 -1 0 0 0 0];

internalField   nonuniform List<scalar> 
5952
(
-4.95732e-06
4.9686e-06
-7.32655e-06
1.87973e-06
-8.39384e-06
1.18805e-06
-9.76193e-06
9.25907e-07
-1.02914e-05
6.52325e-07
-1.11345e-05
3.83124e-07
-1.12529e-05
2.27551e-07
-1.18136e-05
1.09825e-07
-1.17644e-05
6.54487e-08
-1.21508e-05
2.13681e-08
-1.1935e-05
2.25637e-08
1.48121e-09
-1.21687e-05
-1.91553e-06
6.77616e-06
-1.89992e-06
1.7781e-06
-1.44156e-06
7.19292e-07
-1.00266e-06
4.39403e-07
-6.44765e-07
2.85566e-07
-4.62313e-07
1.55245e-07
-3.09686e-07
6.19988e-08
-2.49928e-07
7.32816e-10
-1.65851e-07
-2.45149e-08
-1.42964e-07
-3.11551e-08
-8.75562e-08
-1.84836e-08
-1.88277e-09
-9.35068e-08
4.3415e-07
6.23232e-06
1.00918e-06
1.15331e-06
1.48994e-06
2.30148e-07
1.88889e-06
2.6056e-08
2.2182e-06
-4.93419e-08
2.45596e-06
-9.58934e-08
2.63684e-06
-1.24531e-07
2.75825e-06
-1.3411e-07
2.85426e-06
-1.23035e-07
2.91281e-06
-9.65533e-08
2.95701e-06
-5.7806e-08
-1.32933e-08
2.96878e-06
1.25016e-06
4.82409e-06
2.03069e-06
3.2001e-07
2.52068e-06
-2.70582e-07
2.88971e-06
-3.55351e-07
3.20152e-06
-3.66216e-07
3.45165e-06
-3.56333e-07
3.65497e-06
-3.32565e-07
3.80587e-06
-2.94039e-07
3.92249e-06
-2.41611e-07
3.99913e-06
-1.77981e-07
4.05023e-06
-1.06534e-07
-3.05253e-08
4.06794e-06
1.63497e-06
2.90576e-06
2.5645e-06
-6.9005e-07
3.1207e-06
-8.48963e-07
3.52625e-06
-7.8136e-07
3.86605e-06
-7.14697e-07
4.14404e-06
-6.5022e-07
4.3741e-06
-5.68688e-07
4.54869e-06
-4.81243e-07
4.68365e-06
-3.79067e-07
4.7731e-06
-2.75743e-07
4.83152e-06
-1.63714e-07
-5.4824e-08
4.85137e-06
1.90946e-06
6.38487e-07
3.02629e-06
-1.91135e-06
3.6709e-06
-1.55927e-06
4.15213e-06
-1.28552e-06
4.52991e-06
-1.13074e-06
4.84997e-06
-9.83456e-07
5.09601e-06
-8.42331e-07
5.29475e-06
-6.86479e-07
5.43344e-06
-5.36927e-07
5.53618e-06
-3.79328e-07
5.59092e-06
-2.31138e-07
-7.72986e-08
5.61765e-06
2.11805e-06
-2.1935e-06
3.47649e-06
-3.459e-06
4.28445e-06
-2.42234e-06
4.83718e-06
-1.89975e-06
5.28054e-06
-1.602e-06
5.61819e-06
-1.3634e-06
5.89033e-06
-1.1302e-06
6.08495e-06
-9.10064e-07
6.23496e-06
-6.93151e-07
6.32731e-06
-4.91003e-07
6.38928e-06
-2.92502e-07
-1.04603e-07
6.40603e-06
2.24036e-06
-4.63825e-06
3.99058e-06
-5.29336e-06
4.9773e-06
-3.461e-06
5.63428e-06
-2.59374e-06
6.11664e-06
-2.11858e-06
6.47677e-06
-1.74866e-06
6.74293e-06
-1.41992e-06
6.93652e-06
-1.11912e-06
7.07207e-06
-8.43818e-07
7.16098e-06
-5.89819e-07
7.21202e-06
-3.52477e-07
-1.26069e-07
7.23029e-06
2.30117e-06
-7.2397e-06
4.58662e-06
-7.63651e-06
5.80647e-06
-4.70663e-06
6.5532e-06
-3.36374e-06
7.05833e-06
-2.64375e-06
7.40932e-06
-2.11825e-06
7.65548e-06
-1.68064e-06
7.82661e-06
-1.30298e-06
7.94244e-06
-9.70653e-07
8.01597e-06
-6.73637e-07
8.05672e-06
-4.01481e-07
-1.45861e-07
8.07078e-06
2.88519e-06
-9.97155e-06
5.51e-06
-1.0231e-05
6.85536e-06
-6.05003e-06
7.62768e-06
-4.13804e-06
8.10282e-06
-3.12574e-06
8.40842e-06
-2.43e-06
8.6091e-06
-1.88828e-06
8.7427e-06
-1.44273e-06
8.82884e-06
-1.06493e-06
8.88178e-06
-7.34004e-07
8.90885e-06
-4.37078e-07
-1.59824e-07
8.9185e-06
4.75958e-06
-1.4566e-05
7.04768e-06
-1.24457e-05
8.23889e-06
-7.21551e-06
8.88218e-06
-4.77115e-06
9.24168e-06
-3.48174e-06
9.45366e-06
-2.64175e-06
9.585e-06
-2.02077e-06
9.66771e-06
-1.52885e-06
9.71842e-06
-1.12042e-06
9.74606e-06
-7.68985e-07
9.75873e-06
-4.56584e-07
-1.67818e-07
9.76275e-06
9.26323e-06
-2.3728e-05
9.75299e-06
-1.28495e-05
1.00846e-05
-7.50303e-06
1.03108e-05
-4.97478e-06
1.04408e-05
-3.59834e-06
1.05156e-05
-2.709e-06
1.05605e-05
-2.06175e-06
1.05867e-05
-1.55428e-06
1.05989e-05
-1.1355e-06
1.06006e-05
-7.76979e-07
1.05979e-05
-4.59861e-07
1.0596e-05
-1.69968e-07
-1.18683e-05
9.68888e-09
-1.19582e-05
-8.85382e-09
-1.15508e-05
-8.56616e-09
-1.15258e-05
-4.2014e-08
-1.10541e-05
-7.19968e-08
-1.08751e-05
-1.59923e-07
-1.02676e-05
-2.95673e-07
-9.58806e-06
-5.46527e-07
-8.52686e-06
-8.40092e-07
-7.19977e-06
-1.13412e-06
-5.04244e-06
-1.86119e-06
-4.95909e-06
-7.28598e-08
2.15867e-08
-1.08452e-07
3.95565e-08
-1.193e-07
5.4851e-08
-1.88163e-07
5.39055e-08
-2.44563e-07
3.75089e-08
-3.65338e-07
-1.05839e-08
-5.22342e-07
-9.37248e-08
-8.14063e-07
-2.15446e-07
-1.25896e-06
-3.52214e-07
-1.70338e-06
-6.31505e-07
-1.73474e-06
-1.68848e-06
-6.65649e-06
2.96819e-06
3.46195e-08
2.93782e-06
7.99592e-08
2.89279e-06
1.19893e-07
2.81306e-06
1.49273e-07
2.70777e-06
1.641e-07
2.55522e-06
1.59564e-07
2.34555e-06
1.32494e-07
2.05706e-06
9.12098e-08
1.68582e-06
3.5242e-08
1.24118e-06
-1.55203e-07
6.71874e-07
-1.06695e-06
-5.98615e-06
4.06305e-06
4.66391e-08
4.02617e-06
1.22325e-07
3.96614e-06
1.93856e-07
3.86745e-06
2.57385e-07
3.7361e-06
3.11272e-07
3.55457e-06
3.50473e-07
3.32533e-06
3.74427e-07
3.04046e-06
3.84565e-07
2.70361e-06
3.83607e-07
2.24743e-06
3.04172e-07
1.4419e-06
-2.65129e-07
-4.44735e-06
4.84422e-06
5.88338e-08
4.80104e-06
1.66996e-07
4.72836e-06
2.76704e-07
4.6144e-06
3.79453e-07
4.45936e-06
4.79672e-07
4.25222e-06
5.6886e-07
3.99015e-06
6.48575e-07
3.66974e-06
7.11788e-07
3.28823e-06
7.75701e-07
2.75923e-06
8.49954e-07
1.87565e-06
7.81448e-07
-2.46927e-06
5.60278e-06
6.80584e-08
5.56123e-06
2.19892e-07
5.47791e-06
3.65959e-07
5.35886e-06
5.19411e-07
5.18605e-06
6.67978e-07
4.9614e-06
8.22826e-07
4.66136e-06
9.64802e-07
4.29726e-06
1.1098e-06
3.85239e-06
1.26893e-06
3.25726e-06
1.53411e-06
2.16671e-06
1.98084e-06
7.04496e-10
6.39884e-06
8.48136e-08
6.34993e-06
2.70744e-07
6.27466e-06
4.65772e-07
6.14838e-06
6.63399e-07
5.98071e-06
8.77483e-07
5.73634e-06
1.09492e-06
5.42496e-06
1.33095e-06
5.01839e-06
1.56884e-06
4.49195e-06
1.83404e-06
3.75161e-06
2.33107e-06
2.55706e-06
3.48475e-06
2.59075e-06
7.21937e-06
9.58691e-08
7.1797e-06
3.20639e-07
7.10684e-06
5.53529e-07
6.99703e-06
8.03357e-07
6.83161e-06
1.07173e-06
6.60361e-06
1.36967e-06
6.28112e-06
1.69103e-06
5.8364e-06
2.04578e-06
5.24774e-06
2.48731e-06
4.37437e-06
3.26338e-06
2.7236e-06
5.13277e-06
5.53176e-06
8.06232e-06
1.04506e-07
8.03026e-06
3.58463e-07
7.9731e-06
6.26526e-07
7.88047e-06
9.17295e-07
7.7421e-06
1.24057e-06
7.53447e-06
1.60644e-06
7.23261e-06
2.02695e-06
6.8004e-06
2.51966e-06
6.14901e-06
3.13064e-06
5.14611e-06
4.2835e-06
3.29129e-06
7.14574e-06
8.68107e-06
8.91285e-06
1.09634e-07
8.89254e-06
3.84934e-07
8.85434e-06
6.78451e-07
8.78893e-06
1.00061e-06
8.68631e-06
1.36657e-06
8.52408e-06
1.78997e-06
8.27529e-06
2.29613e-06
7.87909e-06
2.92002e-06
7.27204e-06
3.77573e-06
6.25047e-06
5.29914e-06
4.1364e-06
9.14253e-06
1.28652e-05
9.76131e-06
1.11617e-07
9.75433e-06
3.98746e-07
9.73734e-06
7.07068e-07
9.70482e-06
1.04912e-06
9.64587e-06
1.44059e-06
9.54676e-06
1.90165e-06
9.38349e-06
2.4701e-06
9.11136e-06
3.20497e-06
8.61854e-06
4.23928e-06
7.76734e-06
6.14531e-06
6.09521e-06
1.08187e-05
1.87507e-05
1.05995e-05
1.09345e-07
1.06062e-05
3.98871e-07
1.06114e-05
7.11875e-07
1.06119e-05
1.06139e-06
1.06005e-05
1.46e-06
1.05757e-05
1.93327e-06
1.05268e-05
2.51695e-06
1.04344e-05
3.28723e-06
1.02684e-05
4.41765e-06
9.96484e-06
6.40051e-06
9.34613e-06
1.1313e-05
2.81296e-05
-9.34636e-06
6.87485e-07
-1.10286e-05
9.32147e-07
-1.15141e-05
8.53905e-07
-1.26696e-05
7.13382e-07
-1.28003e-05
4.86392e-07
-1.33738e-05
2.29206e-07
-1.31243e-05
8.59569e-08
-1.33812e-05
-2.4116e-08
-1.30029e-05
-5.70276e-08
-1.31366e-05
-9.46496e-08
-1.27322e-05
-8.92299e-08
-1.05991e-07
-1.28077e-05
-2.34241e-06
2.86774e-06
-2.39397e-06
8.67718e-07
-1.89526e-06
3.69593e-07
-1.43307e-06
2.20264e-07
-1.02641e-06
1.03553e-07
-8.02255e-07
-1.25067e-08
-5.95319e-07
-9.52415e-08
-4.84254e-07
-1.47336e-07
-3.50026e-07
-1.64613e-07
-2.87244e-07
-1.64697e-07
-2.01096e-07
-1.46934e-07
-1.25949e-07
-1.83034e-07
2.90567e-07
2.56094e-06
8.18307e-07
3.11067e-07
1.29824e-06
-9.71936e-08
1.70446e-06
-1.86038e-07
2.054e-06
-2.31516e-07
2.31179e-06
-2.66876e-07
2.51777e-06
-2.87491e-07
2.66241e-06
-2.88831e-07
2.78046e-06
-2.70557e-07
2.85587e-06
-2.37383e-07
2.91369e-06
-1.9332e-07
-1.43968e-07
2.93514e-06
1.11479e-06
1.37851e-06
1.86226e-06
-4.53019e-07
2.35485e-06
-5.75414e-07
2.73554e-06
-5.62519e-07
3.06912e-06
-5.41333e-07
3.33893e-06
-5.27994e-07
3.56572e-06
-4.92148e-07
3.73524e-06
-4.51255e-07
3.8701e-06
-3.8815e-07
3.9591e-06
-3.22457e-07
4.02142e-06
-2.42164e-07
-1.65496e-07
4.04496e-06
1.50132e-06
-2.09947e-07
2.41034e-06
-1.39126e-06
2.95277e-06
-1.14769e-06
3.38951e-06
-9.72677e-07
3.73368e-06
-8.97946e-07
4.05048e-06
-8.07342e-07
4.28922e-06
-7.32042e-07
4.49556e-06
-6.25684e-07
4.6348e-06
-5.29286e-07
4.7473e-06
-4.10078e-07
4.80389e-06
-3.04239e-07
-1.80493e-07
4.8403e-06
1.77189e-06
-2.47065e-06
2.85093e-06
-2.61524e-06
3.53181e-06
-1.84491e-06
3.99963e-06
-1.49603e-06
4.42797e-06
-1.29592e-06
4.74611e-06
-1.15234e-06
5.03653e-06
-9.88223e-07
5.23293e-06
-8.38742e-07
5.40612e-06
-6.71407e-07
5.50131e-06
-5.21031e-07
5.58362e-06
-3.56726e-07
-2.09815e-07
5.59707e-06
2.00368e-06
-4.57295e-06
3.33806e-06
-4.0342e-06
4.14048e-06
-2.6859e-06
4.71903e-06
-2.09515e-06
5.1701e-06
-1.7801e-06
5.54076e-06
-1.5223e-06
5.82265e-06
-1.28455e-06
6.04409e-06
-1.052e-06
6.19878e-06
-8.33569e-07
6.31167e-06
-6.21813e-07
6.37365e-06
-4.21979e-07
-2.2423e-07
6.4047e-06
2.06936e-06
-6.90774e-06
3.84942e-06
-5.82695e-06
4.83918e-06
-3.73101e-06
5.52006e-06
-2.79209e-06
6.02343e-06
-2.29427e-06
6.40385e-06
-1.91132e-06
6.68801e-06
-1.57176e-06
6.89741e-06
-1.26251e-06
7.04571e-06
-9.80133e-07
7.14676e-06
-7.19312e-07
7.20635e-06
-4.7522e-07
-2.41175e-07
7.23121e-06
2.15604e-06
-8.82926e-06
4.43136e-06
-8.11057e-06
5.68338e-06
-4.95095e-06
6.44905e-06
-3.56139e-06
6.97503e-06
-2.82174e-06
7.34599e-06
-2.28179e-06
7.60861e-06
-1.83295e-06
7.79415e-06
-1.44517e-06
7.92249e-06
-1.10485e-06
8.00797e-06
-7.99115e-07
8.05807e-06
-5.18955e-07
-2.53392e-07
8.07922e-06
2.63757e-06
-1.1332e-05
5.35403e-06
-1.07383e-05
6.7304e-06
-6.32854e-06
7.53245e-06
-4.34084e-06
8.03089e-06
-3.30611e-06
8.35426e-06
-2.59614e-06
8.57084e-06
-2.04116e-06
8.71702e-06
-1.58524e-06
8.81634e-06
-1.19693e-06
8.88044e-06
-8.56973e-07
8.91852e-06
-5.49098e-07
-2.60806e-07
8.93478e-06
4.55691e-06
-1.5585e-05
6.88131e-06
-1.298e-05
8.12625e-06
-7.50175e-06
8.79798e-06
-4.98529e-06
9.18051e-06
-3.66811e-06
9.40991e-06
-2.80994e-06
9.55486e-06
-2.17431e-06
9.64985e-06
-1.67055e-06
9.71258e-06
-1.25113e-06
9.75274e-06
-8.88919e-07
9.77639e-06
-5.64167e-07
-2.62524e-07
9.78764e-06
9.13429e-06
-2.46299e-05
9.63298e-06
-1.33746e-05
9.98554e-06
-7.81987e-06
1.02412e-05
-5.19942e-06
1.03917e-05
-3.78923e-06
1.04819e-05
-2.87872e-06
1.05386e-05
-2.21582e-06
1.05761e-05
-1.69561e-06
1.06001e-05
-1.26563e-06
1.06152e-05
-8.94904e-07
1.06236e-05
-5.64656e-07
1.06297e-05
-2.58966e-07
-1.24023e-05
-9.43754e-08
-1.24404e-05
-1.10017e-07
-1.20356e-05
-1.06684e-07
-1.20567e-05
-1.37429e-07
-1.16394e-05
-1.64432e-07
-1.15493e-05
-2.51464e-07
-1.10049e-05
-3.86578e-07
-1.0398e-05
-6.44948e-07
-9.32225e-06
-9.59688e-07
-7.91263e-06
-1.30269e-06
-5.62221e-06
-2.12627e-06
-5.57374e-06
-1.47303e-07
-9.91018e-08
-1.77105e-07
-7.80865e-08
-1.91732e-07
-6.06254e-08
-2.71688e-07
-5.81923e-08
-3.42897e-07
-7.17557e-08
-4.84184e-07
-1.16321e-07
-6.6386e-07
-1.97585e-07
-9.881e-07
-3.17804e-07
-1.47026e-06
-4.59904e-07
-1.96456e-06
-7.77644e-07
-2.03075e-06
-1.97523e-06
-7.58241e-06
2.94085e-06
-9.2693e-08
2.91158e-06
-4.4217e-08
2.86583e-06
-1.22898e-09
2.77915e-06
3.09208e-08
2.66693e-06
5.00691e-08
2.50075e-06
4.90729e-08
2.27796e-06
2.69726e-08
1.96892e-06
-8.81173e-09
1.57807e-06
-6.2914e-08
1.11177e-06
-2.85727e-07
5.29866e-07
-1.35978e-06
-7.03399e-06
4.04515e-06
-8.08977e-08
4.00921e-06
-5.30714e-09
3.94775e-06
7.2465e-08
3.8454e-06
1.36769e-07
3.70633e-06
1.97815e-07
3.51576e-06
2.38598e-07
3.27618e-06
2.74155e-07
2.97894e-06
2.85822e-07
2.63921e-06
2.94895e-07
2.17926e-06
1.82575e-07
1.39864e-06
-5.4776e-07
-5.46256e-06
4.82617e-06
-7.34717e-08
4.7941e-06
4.87901e-08
4.71124e-06
1.51975e-07
4.60388e-06
2.69409e-07
4.4322e-06
3.63127e-07
4.23238e-06
4.72233e-07
3.94379e-06
5.42734e-07
3.63378e-06
6.30349e-07
3.24161e-06
6.88367e-07
2.72142e-06
7.35125e-07
1.9079e-06
5.4506e-07
-3.39088e-06
5.60418e-06
-4.8359e-08
5.54513e-06
9.6758e-08
5.48119e-06
2.59309e-07
5.33928e-06
4.05685e-07
5.1865e-06
5.73602e-07
4.92885e-06
7.18299e-07
4.64881e-06
8.85211e-07
4.25847e-06
1.01997e-06
3.81844e-06
1.18791e-06
3.25976e-06
1.45261e-06
2.19099e-06
1.76011e-06
-6.21181e-07
6.39218e-06
-3.279e-08
6.35349e-06
1.63712e-07
6.26949e-06
3.60379e-07
6.15188e-06
5.70249e-07
5.96925e-06
7.8378e-07
5.73374e-06
1.01585e-06
5.40043e-06
1.2469e-06
4.99389e-06
1.50041e-06
4.48727e-06
1.78128e-06
3.71906e-06
2.23604e-06
2.72176e-06
3.39738e-06
2.18501e-06
7.22373e-06
-1.11693e-08
7.18519e-06
2.21072e-07
7.11433e-06
4.63648e-07
7.00004e-06
7.19371e-07
6.83533e-06
9.97834e-07
6.59588e-06
1.29796e-06
6.27292e-06
1.63107e-06
5.83079e-06
1.99187e-06
5.21932e-06
2.4258e-06
4.42606e-06
3.24145e-06
2.76608e-06
5.00563e-06
5.34018e-06
8.07376e-06
6.31566e-09
8.04477e-06
2.70959e-07
7.9859e-06
5.48534e-07
7.89262e-06
8.48449e-07
7.74768e-06
1.17927e-06
7.53748e-06
1.55162e-06
7.22994e-06
1.97791e-06
6.78983e-06
2.47611e-06
6.16546e-06
3.10655e-06
5.11849e-06
4.20241e-06
3.37849e-06
7.10032e-06
8.49592e-06
8.93324e-06
2.06822e-08
8.91484e-06
3.08134e-07
8.87461e-06
6.1187e-07
8.80724e-06
9.44799e-07
8.69713e-06
1.31681e-06
8.53167e-06
1.7488e-06
8.27704e-06
2.26024e-06
7.88587e-06
2.89042e-06
7.25232e-06
3.73119e-06
6.27436e-06
5.28124e-06
4.09215e-06
9.0073e-06
1.26054e-05
9.79038e-06
3.11076e-08
9.78384e-06
3.31518e-07
9.76529e-06
6.51373e-07
9.72729e-06
1.00328e-06
9.66285e-06
1.40193e-06
9.5581e-06
1.87056e-06
9.38973e-06
2.44254e-06
9.10828e-06
3.18282e-06
8.62256e-06
4.22519e-06
7.70983e-06
6.06994e-06
6.03785e-06
1.07127e-05
1.84216e-05
1.06368e-05
3.62941e-08
1.06428e-05
3.39934e-07
1.06454e-05
6.65782e-07
1.06388e-05
1.02354e-06
1.06223e-05
1.43096e-06
1.05891e-05
1.9089e-06
1.05362e-05
2.50053e-06
1.04371e-05
3.27326e-06
1.02378e-05
4.39278e-06
9.91092e-06
6.3888e-06
9.21312e-06
1.12083e-05
2.75632e-05
-4.98127e-06
4.99757e-06
-7.35398e-06
1.89228e-06
-8.42963e-06
1.19619e-06
-9.79653e-06
9.32184e-07
-1.03317e-05
6.57134e-07
-1.11714e-05
3.87086e-07
-1.12939e-05
2.3058e-07
-1.18503e-05
1.12528e-07
-1.18045e-05
6.74355e-08
-1.21866e-05
2.30001e-08
-1.19751e-05
2.35516e-08
2.66359e-09
-1.22056e-05
-1.92747e-06
6.82127e-06
-1.9115e-06
1.79231e-06
-1.4521e-06
7.26912e-07
-1.01148e-06
4.44884e-07
-6.53011e-07
2.90125e-07
-4.69571e-07
1.59024e-07
-3.16696e-07
6.50926e-08
-2.56112e-07
3.41354e-09
-1.72085e-07
-2.22871e-08
-1.48925e-07
-2.92881e-08
-9.41909e-08
-1.69648e-08
-6.00507e-10
-9.99919e-08
4.26008e-07
6.28916e-06
1.00161e-06
1.16809e-06
1.483e-06
2.37448e-07
1.88291e-06
3.09278e-08
2.21297e-06
-4.53308e-08
2.45136e-06
-9.24479e-08
2.63256e-06
-1.21583e-07
2.75436e-06
-1.31547e-07
2.85047e-06
-1.20801e-07
2.90905e-06
-9.45742e-08
2.95305e-06
-5.61104e-08
-1.19442e-08
2.96476e-06
1.24356e-06
4.89058e-06
2.02413e-06
3.35765e-07
2.51442e-06
-2.63293e-07
2.88423e-06
-3.50912e-07
3.19655e-06
-3.62494e-07
3.44714e-06
-3.53047e-07
3.65075e-06
-3.29696e-07
3.80198e-06
-2.91569e-07
3.91881e-06
-2.39434e-07
3.99565e-06
-1.76056e-07
4.04678e-06
-1.04838e-07
-2.91244e-08
4.06447e-06
1.62685e-06
2.98413e-06
2.55694e-06
-6.74094e-07
3.11404e-06
-8.42153e-07
3.52029e-06
-7.77299e-07
3.86052e-06
-7.11112e-07
4.13897e-06
-6.47027e-07
4.36937e-06
-5.65988e-07
4.54439e-06
-4.78861e-07
4.67956e-06
-3.7707e-07
4.76933e-06
-2.7384e-07
4.82777e-06
-1.62095e-07
-5.32414e-08
4.84767e-06
1.89834e-06
7.31797e-07
3.01678e-06
-1.89606e-06
3.66302e-06
-1.55417e-06
4.14506e-06
-1.28207e-06
4.52336e-06
-1.12752e-06
4.84387e-06
-9.80765e-07
5.09054e-06
-8.4003e-07
5.28963e-06
-6.84738e-07
5.42895e-06
-5.35269e-07
5.53183e-06
-3.77928e-07
5.58699e-06
-2.29593e-07
-7.59317e-08
5.61353e-06
2.10391e-06
-2.08408e-06
3.46406e-06
-3.44543e-06
4.27452e-06
-2.41995e-06
4.82841e-06
-1.89754e-06
5.27262e-06
-1.59995e-06
5.61136e-06
-1.36181e-06
5.88412e-06
-1.12908e-06
6.07961e-06
-9.09167e-07
6.23005e-06
-6.92511e-07
6.32315e-06
-4.90188e-07
6.38526e-06
-2.91561e-07
-1.03298e-07
6.40226e-06
2.22395e-06
-4.50511e-06
3.97485e-06
-5.27964e-06
4.96509e-06
-3.46197e-06
5.62397e-06
-2.59346e-06
6.10798e-06
-2.11817e-06
6.46944e-06
-1.74863e-06
6.73665e-06
-1.41995e-06
6.93101e-06
-1.11926e-06
7.06729e-06
-8.43977e-07
7.15685e-06
-5.89689e-07
7.20828e-06
-3.5187e-07
-1.24878e-07
7.22663e-06
2.28854e-06
-7.08837e-06
4.5701e-06
-7.61719e-06
5.79278e-06
-4.70983e-06
6.54173e-06
-3.3652e-06
7.04914e-06
-2.64535e-06
7.40184e-06
-2.11974e-06
7.64923e-06
-1.68182e-06
7.8213e-06
-1.30398e-06
7.938e-06
-9.71501e-07
8.01231e-06
-6.74042e-07
8.05359e-06
-4.01145e-07
-1.44623e-07
8.06775e-06
2.8801e-06
-9.80575e-06
5.49555e-06
-1.01995e-05
6.84263e-06
-6.05356e-06
7.61713e-06
-4.14073e-06
8.09434e-06
-3.12871e-06
8.40149e-06
-2.43248e-06
8.60343e-06
-1.89034e-06
8.73809e-06
-1.44444e-06
8.82511e-06
-1.06622e-06
8.87878e-06
-7.34697e-07
8.90643e-06
-4.3683e-07
-1.58488e-07
8.91621e-06
4.75601e-06
-1.43855e-05
7.03916e-06
-1.24052e-05
8.2293e-06
-7.21587e-06
8.87355e-06
-4.77345e-06
9.23433e-06
-3.48492e-06
9.44758e-06
-2.64468e-06
9.58009e-06
-2.02335e-06
9.66384e-06
-1.53098e-06
9.71542e-06
-1.12198e-06
9.74381e-06
-7.69757e-07
9.75699e-06
-4.56307e-07
-1.66353e-07
9.76111e-06
9.23095e-06
-2.35148e-05
9.73915e-06
-1.28243e-05
1.00741e-05
-7.50451e-06
1.03024e-05
-4.97759e-06
1.0434e-05
-3.60172e-06
1.05101e-05
-2.71221e-06
1.05562e-05
-2.06462e-06
1.05834e-05
-1.55668e-06
1.05966e-05
-1.13728e-06
1.05992e-05
-7.77866e-07
1.05971e-05
-4.5955e-07
1.05952e-05
-1.68202e-07
-1.19108e-05
1.04313e-08
-1.19984e-05
-8.29106e-09
-1.1598e-05
-8.47347e-09
-1.1572e-05
-4.18807e-08
-1.11075e-05
-7.27395e-08
-1.09274e-05
-1.61451e-07
-1.03245e-05
-2.98545e-07
-9.6438e-06
-5.5082e-07
-8.58231e-06
-8.47036e-07
-7.25105e-06
-1.14555e-06
-5.08636e-06
-1.88086e-06
-5.00717e-06
-7.9995e-08
2.25246e-08
-1.15768e-07
4.01833e-08
-1.27587e-07
5.50923e-08
-1.96622e-07
5.37621e-08
-2.54054e-07
3.67045e-08
-3.75421e-07
-1.2258e-08
-5.3366e-07
-9.64929e-08
-8.26595e-07
-2.1942e-07
-1.27418e-06
-3.57953e-07
-1.72328e-06
-6.40918e-07
-1.7596e-06
-1.71054e-06
-6.73387e-06
2.96392e-06
3.56323e-08
2.9333e-06
8.06768e-08
2.88783e-06
1.2019e-07
2.80785e-06
1.49028e-07
2.70204e-06
1.63229e-07
2.5489e-06
1.57966e-07
2.33834e-06
1.29963e-07
2.0488e-06
8.7562e-08
1.67592e-06
3.01425e-08
1.22814e-06
-1.63628e-07
6.53285e-07
-1.09107e-06
-6.08815e-06
4.05932e-06
4.78162e-08
4.02212e-06
1.23239e-07
3.96151e-06
1.94449e-07
3.8621e-06
2.575e-07
3.72977e-06
3.10844e-07
3.54721e-06
3.49255e-07
3.31692e-06
3.72158e-07
3.03111e-06
3.80916e-07
2.6933e-06
3.78238e-07
2.23555e-06
2.94651e-07
1.42624e-06
-2.9454e-07
-4.5702e-06
4.84016e-06
6.0193e-08
4.79659e-06
1.68372e-07
4.72303e-06
2.77743e-07
4.60814e-06
3.80243e-07
4.4517e-06
4.79788e-07
4.24321e-06
5.68257e-07
3.97963e-06
6.46505e-07
3.65814e-06
7.08024e-07
3.27568e-06
7.69508e-07
2.74503e-06
8.38942e-07
1.85846e-06
7.4884e-07
-2.61685e-06
5.59865e-06
6.96835e-08
5.55629e-06
2.21455e-07
5.47219e-06
3.67687e-07
5.35149e-06
5.20671e-07
5.1772e-06
6.68914e-07
4.95032e-06
8.2254e-07
4.64868e-06
9.63146e-07
4.28277e-06
1.10559e-06
3.83711e-06
1.26201e-06
3.24217e-06
1.52077e-06
2.14872e-06
1.9421e-06
-1.70771e-07
6.39456e-06
8.63455e-08
6.34515e-06
2.7269e-07
6.26839e-06
4.67739e-07
6.14058e-06
6.65373e-07
5.97038e-06
8.78787e-07
5.72369e-06
1.0954e-06
5.40927e-06
1.32959e-06
5.00041e-06
1.56523e-06
4.47191e-06
1.82663e-06
3.73039e-06
2.31549e-06
2.53303e-06
3.44279e-06
2.38182e-06
7.21539e-06
9.75612e-08
7.17489e-06
3.2278e-07
7.10062e-06
5.55985e-07
6.98862e-06
8.05779e-07
6.82052e-06
1.07379e-06
6.58917e-06
1.37074e-06
6.26322e-06
1.69052e-06
5.81483e-06
2.04272e-06
5.22353e-06
2.48009e-06
4.35032e-06
3.24458e-06
2.69796e-06
5.07931e-06
5.28289e-06
8.05886e-06
1.06471e-07
8.02578e-06
3.61001e-07
7.96689e-06
6.29464e-07
7.87182e-06
9.20308e-07
7.73026e-06
1.24332e-06
7.51872e-06
1.60839e-06
7.21243e-06
2.02757e-06
6.77569e-06
2.51783e-06
6.12056e-06
3.12353e-06
5.11806e-06
4.25846e-06
3.26687e-06
7.07635e-06
8.39028e-06
8.91006e-06
1.11981e-07
8.88849e-06
3.88063e-07
8.84822e-06
6.82053e-07
8.78012e-06
1.00438e-06
8.6739e-06
1.37016e-06
8.50736e-06
1.79313e-06
8.2534e-06
2.29814e-06
7.85181e-06
2.91957e-06
7.23984e-06
3.76906e-06
6.21717e-06
5.27001e-06
4.10283e-06
9.05824e-06
1.25165e-05
9.75914e-06
1.14237e-07
9.75082e-06
4.02353e-07
9.73165e-06
7.11272e-07
9.69611e-06
1.05371e-06
9.63327e-06
1.44521e-06
9.5294e-06
1.90621e-06
9.36007e-06
2.47397e-06
9.0806e-06
3.20748e-06
8.57887e-06
4.2368e-06
7.71464e-06
6.12088e-06
6.02798e-06
1.07305e-05
1.8308e-05
1.0598e-05
1.12435e-07
1.06032e-05
4.03055e-07
1.06061e-05
7.16831e-07
1.06035e-05
1.06683e-06
1.05882e-05
1.46592e-06
1.05581e-05
1.93957e-06
1.05025e-05
2.52385e-06
1.04007e-05
3.2945e-06
1.02203e-05
4.42345e-06
9.89166e-06
6.39582e-06
9.22155e-06
1.12561e-05
2.75491e-05
-4.9208e-06
4.89359e-06
-7.19598e-06
1.84349e-06
-8.26231e-06
1.16032e-06
-9.53349e-06
9.06014e-07
-1.00394e-05
6.33716e-07
-1.0745e-05
3.6929e-07
-1.0795e-05
2.10415e-07
-1.11889e-05
9.48448e-08
-1.10475e-05
4.88957e-08
-1.13101e-05
4.92086e-09
-1.10947e-05
4.18361e-10
-2.11972e-08
-1.12888e-05
-1.88361e-06
6.68436e-06
-1.85444e-06
1.73888e-06
-1.39893e-06
6.94292e-07
-9.49844e-07
4.19143e-07
-5.8537e-07
2.65428e-07
-3.84402e-07
1.35747e-07
-2.14762e-07
4.17482e-08
-1.27922e-07
-1.93761e-08
-2.60018e-08
-4.65959e-08
1.33573e-08
-5.527e-08
7.23222e-08
-4.63571e-08
-3.28459e-08
7.0308e-08
4.45773e-07
6.21653e-06
1.02925e-06
1.12827e-06
1.51168e-06
2.11816e-07
1.91376e-06
7.78847e-09
2.24934e-06
-6.92335e-08
2.49477e-06
-1.17879e-07
2.68571e-06
-1.48149e-07
2.81763e-06
-1.58978e-07
2.92239e-06
-1.49695e-07
2.98634e-06
-1.25549e-07
3.03299e-06
-8.98351e-08
-4.86362e-08
3.04484e-06
1.24346e-06
4.84502e-06
2.03676e-06
3.02478e-07
2.52918e-06
-2.83612e-07
2.90426e-06
-3.72276e-07
3.22404e-06
-3.80588e-07
3.48288e-06
-3.78179e-07
3.69604e-06
-3.53077e-07
3.85543e-06
-3.20468e-07
3.97896e-06
-2.67246e-07
4.05949e-06
-2.09476e-07
4.1126e-06
-1.38176e-07
-6.87057e-08
4.12925e-06
1.63245e-06
3.04323e-06
2.57036e-06
-6.92997e-07
3.11637e-06
-8.69857e-07
3.54131e-06
-7.88273e-07
3.87519e-06
-7.36234e-07
4.1769e-06
-6.59456e-07
4.40558e-06
-5.92086e-07
4.59927e-06
-4.96663e-07
4.73055e-06
-4.07769e-07
4.83307e-06
-2.98296e-07
4.88351e-06
-1.99333e-07
-8.42083e-08
4.91194e-06
1.89164e-06
5.45678e-07
3.00673e-06
-1.97662e-06
3.68248e-06
-1.58794e-06
4.14391e-06
-1.31405e-06
4.55504e-06
-1.13804e-06
4.86314e-06
-1.00434e-06
5.13877e-06
-8.51634e-07
5.32712e-06
-7.10308e-07
5.48918e-06
-5.5304e-07
5.57844e-06
-4.10034e-07
5.65217e-06
-2.54462e-07
-1.14097e-07
5.66118e-06
2.12242e-06
-1.81717e-06
3.48222e-06
-3.47081e-06
4.28599e-06
-2.44854e-06
4.85065e-06
-1.92211e-06
5.28827e-06
-1.62565e-06
5.64507e-06
-1.37901e-06
5.91577e-06
-1.15078e-06
6.12666e-06
-9.27821e-07
6.27329e-06
-7.18213e-07
6.37865e-06
-5.14997e-07
6.43481e-06
-3.22854e-07
-1.32622e-07
6.46017e-06
2.18122e-06
-4.47095e-06
3.99167e-06
-5.34352e-06
4.9762e-06
-3.52071e-06
5.64292e-06
-2.62746e-06
6.13168e-06
-2.14475e-06
6.49844e-06
-1.77219e-06
6.77138e-06
-1.44216e-06
6.97099e-06
-1.14219e-06
7.11152e-06
-8.68676e-07
7.20586e-06
-6.16284e-07
7.25997e-06
-3.79957e-07
-1.53205e-07
7.27987e-06
2.31697e-06
-6.71977e-06
4.5788e-06
-7.66861e-06
5.8172e-06
-4.75024e-06
6.56445e-06
-3.40253e-06
7.07441e-06
-2.67671e-06
7.4315e-06
-2.14718e-06
7.68301e-06
-1.70788e-06
7.85943e-06
-1.32953e-06
7.98055e-06
-9.97764e-07
8.05992e-06
-7.00339e-07
8.10502e-06
-4.27578e-07
-1.6923e-07
8.12144e-06
2.90329e-06
-9.64104e-06
5.52849e-06
-1.02463e-05
6.86223e-06
-6.1188e-06
7.64158e-06
-4.17993e-06
8.12173e-06
-3.16269e-06
8.43163e-06
-2.46436e-06
8.63715e-06
-1.92006e-06
8.77499e-06
-1.47349e-06
8.86727e-06
-1.09385e-06
8.92583e-06
-7.61661e-07
8.95888e-06
-4.60988e-07
-1.79716e-07
8.9706e-06
4.80885e-06
-1.42218e-05
7.06224e-06
-1.24607e-05
8.25753e-06
-7.25859e-06
8.8991e-06
-4.8158e-06
9.26224e-06
-3.5239e-06
9.47858e-06
-2.68112e-06
9.61369e-06
-2.05788e-06
9.70111e-06
-1.56363e-06
9.75754e-06
-1.15286e-06
9.7925e-06
-7.97853e-07
9.81131e-06
-4.7991e-07
-1.85241e-07
9.81789e-06
9.27122e-06
-2.34446e-05
9.78276e-06
-1.28891e-05
1.0099e-05
-7.56699e-06
1.03293e-05
-5.02201e-06
1.0463e-05
-3.64307e-06
1.05416e-05
-2.75242e-06
1.05904e-05
-2.10314e-06
1.06212e-05
-1.59308e-06
1.06399e-05
-1.17117e-06
1.065e-05
-8.07354e-07
1.06537e-05
-4.83271e-07
1.06551e-05
-1.84079e-07
-1.10372e-05
-1.7547e-08
-1.11817e-05
-3.82789e-08
-1.0902e-05
-4.17033e-08
-1.10181e-05
-7.70588e-08
-1.07035e-05
-1.09261e-07
-1.06983e-05
-1.9949e-07
-1.02412e-05
-3.3635e-07
-9.7149e-06
-5.91556e-07
-8.73e-06
-8.95105e-07
-7.43467e-06
-1.21441e-06
-5.31532e-06
-1.99666e-06
-5.27944e-06
8.40475e-08
-1.34844e-08
3.67671e-08
9.52246e-10
3.73847e-09
1.20264e-08
-9.16293e-08
8.77708e-09
-1.78083e-07
-1.02024e-08
-3.31868e-07
-5.94166e-08
-5.21558e-07
-1.44498e-07
-8.48645e-07
-2.67316e-07
-1.323e-06
-4.08742e-07
-1.80472e-06
-7.10033e-07
-1.892e-06
-1.84611e-06
-7.15851e-06
3.04168e-06
-4.6963e-09
3.00457e-06
3.67016e-08
2.95164e-06
7.34201e-08
2.85849e-06
9.94526e-08
2.74054e-06
1.13117e-07
2.56973e-06
1.06536e-07
2.34442e-06
7.91865e-08
2.03641e-06
3.75278e-08
1.6512e-06
-2.01838e-08
1.19131e-06
-2.29993e-07
5.98608e-07
-1.23452e-06
-6.55011e-06
4.12196e-06
7.96983e-09
4.08031e-06
7.72754e-08
4.01258e-06
1.48142e-07
3.90542e-06
2.06933e-07
3.76113e-06
2.61513e-07
3.56705e-06
2.96978e-07
3.32415e-06
3.25687e-07
3.0258e-06
3.31159e-07
2.68568e-06
3.34524e-07
2.22643e-06
2.34032e-07
1.4366e-06
-4.26103e-07
-4.95597e-06
4.89296e-06
1.67405e-08
4.85407e-06
1.31448e-07
4.76705e-06
2.29288e-07
4.6532e-06
3.39559e-07
4.47812e-06
4.28265e-07
4.27235e-06
5.29834e-07
3.98167e-06
5.94959e-07
3.66735e-06
6.74349e-07
3.27368e-06
7.27313e-07
2.75059e-06
7.83996e-07
1.92257e-06
6.5929e-07
-2.88669e-06
5.66129e-06
3.97167e-08
5.59839e-06
1.79092e-07
5.52755e-06
3.34522e-07
5.38196e-06
4.75447e-07
5.2222e-06
6.35996e-07
4.96165e-06
7.75117e-07
4.67594e-06
9.34125e-07
4.28352e-06
1.06242e-06
3.84012e-06
1.2234e-06
3.27766e-06
1.4947e-06
2.20031e-06
1.86507e-06
-1.44095e-07
6.44296e-06
5.21447e-08
6.39877e-06
2.41911e-07
6.30976e-06
4.32414e-07
6.186e-06
6.35355e-07
5.99845e-06
8.42653e-07
5.75726e-06
1.0676e-06
5.42016e-06
1.29236e-06
5.00915e-06
1.53816e-06
4.49879e-06
1.81285e-06
3.72939e-06
2.2739e-06
2.70959e-06
3.4855e-06
2.63436e-06
7.26756e-06
6.9835e-08
7.2241e-06
2.95457e-07
7.14754e-06
5.31145e-07
7.02779e-06
7.80239e-07
6.8573e-06
1.05172e-06
6.61306e-06
1.3455e-06
6.28501e-06
1.67205e-06
5.83866e-06
2.02659e-06
5.22402e-06
2.45475e-06
4.42352e-06
3.27294e-06
2.7557e-06
5.09365e-06
5.74835e-06
8.11137e-06
8.35702e-08
8.07725e-06
3.41265e-07
8.01309e-06
6.11736e-07
7.91424e-06
9.04772e-07
7.76417e-06
1.22882e-06
7.54894e-06
1.59513e-06
7.23658e-06
2.01581e-06
6.7915e-06
2.50859e-06
6.16178e-06
3.13428e-06
5.11236e-06
4.23607e-06
3.35035e-06
7.18291e-06
8.87549e-06
8.96457e-06
9.46213e-08
8.94115e-06
3.747e-07
8.89594e-06
6.713e-07
8.82331e-06
9.97118e-07
8.70874e-06
1.36283e-06
8.53853e-06
1.78926e-06
8.27926e-06
2.2963e-06
7.88287e-06
2.92247e-06
7.24414e-06
3.76061e-06
6.2581e-06
5.3144e-06
4.07325e-06
9.09795e-06
1.29528e-05
9.81599e-06
1.01089e-07
9.80469e-06
3.93984e-07
9.7813e-06
7.06676e-07
9.73878e-06
1.05173e-06
9.67025e-06
1.44458e-06
9.56152e-06
1.90841e-06
9.38922e-06
2.47697e-06
9.10351e-06
3.21397e-06
8.61274e-06
4.25573e-06
7.69613e-06
6.1092e-06
6.01687e-06
1.07988e-05
1.87537e-05
1.06573e-05
1.03343e-07
1.06588e-05
3.99254e-07
1.06568e-05
7.176e-07
1.06465e-05
1.06906e-06
1.06263e-05
1.47106e-06
1.05901e-05
1.94519e-06
1.05339e-05
2.53385e-06
1.04314e-05
3.30497e-06
1.0228e-05
4.4257e-06
9.89617e-06
6.42961e-06
9.20657e-06
1.12939e-05
2.78851e-05
1.69942e-05
-8.79183e-06
-3.18619e-05
1.32799e-05
-9.06599e-06
1.21529e-05
-6.33282e-06
1.17735e-05
-4.56967e-06
1.16241e-05
-3.433e-06
1.15532e-05
-2.6284e-06
1.1513e-05
-2.01601e-06
1.14853e-05
-1.52454e-06
1.14613e-05
-1.11394e-06
1.14387e-05
-7.59945e-07
1.14204e-05
-4.47028e-07
-1.64013e-07
1.14128e-05
1.81225e-05
-3.87003e-06
-2.30337e-05
1.4955e-05
-5.84065e-06
1.36155e-05
-4.94984e-06
1.30089e-05
-3.9332e-06
1.27019e-05
-3.10671e-06
1.25306e-05
-2.44439e-06
1.24257e-05
-1.90313e-06
1.23545e-05
-1.45008e-06
1.23003e-05
-1.06161e-06
1.22565e-05
-7.21147e-07
1.22234e-05
-4.19932e-07
-1.5192e-07
1.22083e-05
1.77154e-05
-1.97383e-06
-1.95811e-05
1.57649e-05
-3.84382e-06
1.46459e-05
-3.79379e-06
1.40237e-05
-3.2849e-06
1.36606e-05
-2.72645e-06
1.34375e-05
-2.20986e-06
1.32925e-05
-1.75096e-06
1.31911e-05
-1.34603e-06
1.31142e-05
-9.86218e-07
1.30523e-05
-6.64982e-07
1.30052e-05
-3.76499e-07
-1.23243e-07
1.29802e-05
1.74634e-05
-1.82863e-05
-1.14005e-06
1.62853e-05
-2.62854e-06
1.54332e-05
-2.90765e-06
1.48781e-05
-2.70481e-06
1.45177e-05
-2.34827e-06
1.42786e-05
-1.95871e-06
1.41145e-05
-1.57938e-06
1.39957e-05
-1.22403e-06
1.3903e-05
-8.95973e-07
1.38276e-05
-5.94723e-07
1.37674e-05
-3.17453e-07
1.3721e-05
-8.25322e-08
1.14218e-05
1.0281e-07
1.14418e-05
3.85305e-07
1.14682e-05
6.95106e-07
1.1498e-05
1.04001e-06
1.15321e-05
1.43106e-06
1.15758e-05
1.88866e-06
1.16444e-05
2.44323e-06
1.17768e-05
3.15017e-06
1.20583e-05
4.10145e-06
1.28632e-05
5.58404e-06
1.58925e-05
8.26209e-06
1.16279e-05
3.2349e-05
1.22245e-05
8.88964e-08
1.22578e-05
3.5787e-07
1.23023e-05
6.58536e-07
1.23567e-05
9.90711e-07
1.24264e-05
1.36292e-06
1.25224e-05
1.78647e-06
1.26732e-05
2.28177e-06
1.2932e-05