/*--------------------------------*- C++ -*----------------------------------*\
  =========                 |
  \\      /  F ield         | OpenFOAM: The Open Source CFD Toolbox
   \\    /   O peration     | Website:  https://openfoam.org
    \\  /    A nd           | Version:  6
     \\/     M anipulation  |
\*---------------------------------------------------------------------------*/
FoamFile
{
    version     2.0;
    format      ascii;
    class       volVectorField;
    location    "1000";
    object      U;
}
// * * * * * * * * * * * * * * * * * * * * * * * * * * * * * * * * * * * * * //

dimensions      [0 1 -1 0 0 0 0];

internalField   nonuniform List<vector> 
3072
(
(0.194266 1.11155 0)
(0.165338 1.23356 0)
(0.188209 1.12805 -1.13042e-20)
(0.229362 1.02668 -5.3945e-18)
(0.277081 0.970312 9.89887e-18)
(0.326755 0.927908 -5.52923e-18)
(0.376467 0.885156 -3.65464e-18)
(0.425027 0.840943 -2.23671e-17)
(0.472469 0.795348 3.85231e-17)
(0.518868 0.749857 -1.50175e-17)
(0.564798 0.704368 1.19301e-17)
(0.610559 0.659619 6.53637e-18)
(0.168097 0.790273 -3.5132e-20)
(0.0818368 0.657297 -5.44335e-19)
(0.0695552 0.473052 9.70224e-20)
(0.0733631 0.375554 0)
(0.0836321 0.331238 1.10813e-18)
(0.0967421 0.306749 -1.68944e-18)
(0.111377 0.288093 0)
(0.126588 0.27108 0)
(0.142169 0.254453 0)
(0.15776 0.238105 5.88094e-21)
(0.173438 0.221832 -7.23693e-18)
(0.189161 0.205894 -2.18745e-19)
(0.0994358 0.710503 3.12438e-20)
(0.0369323 0.513213 0)
(0.0314422 0.327638 0)
(0.0348766 0.244466 -7.26168e-19)
(0.0415995 0.208871 4.41748e-19)
(0.0498724 0.189722 -1.05648e-18)
(0.0589951 0.175844 1.35662e-18)
(0.0685965 0.163728 0)
(0.0785279 0.152294 0)
(0.0886194 0.141235 -1.08804e-18)
(0.0988364 0.1304 -1.30946e-18)
(0.109147 0.119791 3.82445e-18)
(-0.00188615 0.711884 -2.35803e-19)
(-0.00701882 0.493099 -3.9542e-19)
(0.00659775 0.303592 1.42279e-19)
(0.0161287 0.223857 -2.61965e-19)
(0.0251483 0.190697 9.10472e-19)
(0.0344276 0.172305 -1.06578e-18)
(0.0439313 0.158482 -6.74177e-19)
(0.0536102 0.1463 -2.42336e-18)
(0.063405 0.134918 -2.00829e-19)
(0.0732686 0.124035 1.84504e-18)
(0.0831716 0.113493 2.23543e-18)
(0.0931261 0.103191 -2.23142e-18)
(-0.123595 0.728419 0)
(-0.0556882 0.493744 1.09832e-19)
(-0.0185502 0.301233 -2.01251e-19)
(-0.001285 0.222701 4.59851e-19)
(0.0110726 0.189844 7.61968e-20)
(0.0223708 0.170789 5.63694e-19)
(0.0334333 0.15599 6.71421e-19)
(0.044353 0.142901 7.75736e-19)
(0.0551612 0.130755 -1.85898e-18)
(0.0658283 0.119256 1.85893e-18)
(0.0763952 0.108186 -3.2957e-18)
(0.0868931 0.0973954 4.55017e-18)
(-0.260081 0.734944 -3.12267e-19)
(-0.108938 0.493525 7.77234e-20)
(-0.0458637 0.300088 4.0954e-19)
(-0.0199341 0.222642 0)
(-0.00375394 0.189594 -1.04453e-18)
(0.0100043 0.169584 1.16982e-18)
(0.0229526 0.153802 0)
(0.0354207 0.139912 -1.71696e-18)
(0.0474521 0.127154 1.71664e-18)
(0.0590953 0.115164 0)
(0.0704197 0.103666 -7.90388e-20)
(0.0815214 0.0924422 2.26142e-18)
(-0.415924 0.733301 0)
(-0.168849 0.48898 -3.44923e-19)
(-0.0761588 0.295687 2.78794e-19)
(-0.0403517 0.219513 0)
(-0.019668 0.186252 -5.97629e-19)
(-0.00300606 0.165491 -1.00515e-19)
(0.0121154 0.149116 1.38555e-18)
(0.0262545 0.13486 1.77007e-18)
(0.0395439 0.12191 -1.76974e-18)
(0.0521193 0.109788 2.04662e-18)
(0.0641073 0.0981666 -2.11776e-18)
(0.0756697 0.086748 -7.08334e-18)
(-0.598111 0.718068 0)
(-0.237851 0.476863 3.19586e-19)
(-0.110096 0.286189 -4.6391e-19)
(-0.0625046 0.211867 5.41734e-19)
(-0.036337 0.178772 0)
(-0.0162639 0.157882 -1.3281e-18)
(0.00128802 0.141581 1.64892e-18)
(0.0171423 0.12759 1.72661e-19)
(0.0316483 0.114947 -3.80402e-18)
(0.0450322 0.103122 -2.14345e-18)
(0.0575347 0.0917047 -8.43356e-20)
(0.069364 0.080378 4.73836e-18)
(-0.796167 0.668988 0)
(-0.318335 0.453733 -4.97226e-19)
(-0.147842 0.269525 -6.31802e-19)
(-0.0856729 0.19839 -5.32979e-19)
(-0.0529603 0.16654 1.34207e-18)
(-0.0290002 0.146626 0)
(-0.00895382 0.131369 0)
(0.0085603 0.118368 0)
(0.0241196 0.106606 0)
(0.0381493 0.0954902 2.0721e-18)
(0.0509709 0.084614 -2.29816e-18)
(0.06287 0.0736422 2.29837e-18)
(-0.924882 0.523983 0)
(-0.401941 0.406028 4.61425e-19)
(-0.186797 0.241143 -1.20308e-19)
(-0.108114 0.177474 6.71489e-19)
(-0.068115 0.149195 7.75767e-19)
(-0.0402389 0.131955 -1.59808e-18)
(-0.017891 0.118883 0)
(0.000985992 0.107656 3.77841e-20)
(0.017343 0.0972986 -5.90173e-18)
(0.0317751 0.0872659 0)
(0.0447037 0.0772095 4.48124e-18)
(0.0564598 0.0668346 -2.42047e-18)
(-0.935957 0.267609 0)
(-0.475889 0.319928 7.47002e-19)
(-0.219017 0.194424 1.56286e-18)
(-0.126147 0.14733 -1.33669e-18)
(-0.079842 0.126826 -2.23117e-18)
(-0.0488574 0.114472 4.04881e-18)
(-0.0248803 0.104781 2.38411e-20)
(-0.0051601 0.0959982 -1.8493e-18)
(0.011605 0.0874504 2.01619e-18)
(0.0261531 0.078786 -4.25976e-18)
(0.0389646 0.069776 -6.72632e-18)
(0.0503826 0.0601906 6.9744e-18)
(-0.870516 -0.00911991 -6.97016e-19)
(-0.455882 0.145875 -2.79801e-18)
(-0.22586 0.121669 5.55112e-19)
(-0.133904 0.107593 0)
(-0.0859206 0.100629 0)
(-0.0538993 0.095339 9.44836e-20)
(-0.0294846 0.089938 5.47913e-18)
(-0.00964451 0.0840122 3.7792e-18)
(0.00705984 0.0774974 0)
(0.0214197 0.0703617 4.21194e-18)
(0.0339021 0.0625424 0)
(0.0448092 0.0539043 9.76762e-21)
(0.656201 0.614459 -5.08354e-17)
(0.701892 0.569191 2.18833e-17)
(0.747853 0.523077 -2.46929e-17)
(0.794138 0.476307 -8.78894e-18)
(0.8403 0.428056 -9.3766e-18)
(0.885273 0.378486 0)
(0.927408 0.327381 0)
(0.963208 0.275097 2.2942e-17)
(1.00262 0.223255 -2.28792e-17)
(1.11948 0.185096 0)
(1.25136 0.165056 0)
(1.12941 0.19389 -1.90277e-20)
(0.205108 0.190063 5.55945e-18)
(0.221173 0.174375 0)
(0.237596 0.158684 9.7435e-21)
(0.254171 0.143015 3.45235e-18)
(0.270928 0.127225 1.84035e-18)
(0.287634 0.111582 8.04843e-18)
(0.30434 0.0962047 -1.23099e-17)
(0.322777 0.0816848 2.06903e-18)
(0.357011 0.069795 0)
(0.454606 0.066653 0)
(0.652869 0.0797129 0)
(0.794864 0.164325 8.93739e-18)
(0.119593 0.109307 1.53089e-18)
(0.130165 0.0989278 -4.48399e-18)
(0.140936 0.0886049 1.6478e-18)
(0.151927 0.0783759 3.63326e-18)
(0.163201 0.0682519 -3.63587e-18)
(0.174749 0.0583513 0)
(0.186775 0.048795 0)
(0.200846 0.0396929 1.8381e-21)
(0.227684 0.0320115 1.27635e-18)
(0.304993 0.0286472 0)
(0.495157 0.0342727 0)
(0.703877 0.0959256 -7.8481e-18)
(0.103161 0.0930363 -9.75657e-20)
(0.113336 0.0829665 3.96542e-18)
(0.12372 0.0729301 2.99534e-18)
(0.134407 0.0629238 -2.99603e-18)
(0.145507 0.0529641 0)
(0.157126 0.0431151 1.74352e-18)
(0.169417 0.0334254 0)
(0.183455 0.0238265 2.96241e-18)
(0.208031 0.0145702 -1.1209e-18)
(0.280779 0.005631 0)
(0.470746 -0.00747765 -2.38663e-18)
(0.691358 -0.0042124 1.19629e-17)
(0.0974105 0.0867388 -2.50251e-18)
(0.108035 0.0761113 0)
(0.1189 0.0654177 0)
(0.130147 0.054622 0)
(0.14197 0.0436907 0)
(0.154531 0.0326673 -3.4491e-18)
(0.168043 0.0215584 7.21815e-20)
(0.183344 0.0103167 -1.91853e-18)
(0.20798 -0.00150945 0)
(0.279363 -0.0174393 -1.68717e-18)
(0.471549 -0.0534465 2.22263e-18)
(0.702433 -0.115083 -4.6043e-18)
(0.0925233 0.0812953 8.95826e-20)
(0.103573 0.0700689 -5.28243e-18)
(0.114845 0.0586282 2.95476e-18)
(0.126553 0.0468648 1.84243e-19)
(0.138956 0.0347306 6.89989e-20)
(0.152335 0.0221717 5.26592e-18)
(0.167005 0.00925248 1.77967e-19)
(0.183786 -0.00419108 -5.74721e-18)
(0.209133 -0.0191849 -2.12631e-18)
(0.278923 -0.0429519 1.61755e-18)
(0.473187 -0.104309 -4.0585e-18)
(0.715253 -0.243345 -8.71807e-18)
(0.0869672 0.0753016 7.57491e-18)
(0.0982071 0.063619 2.76759e-18)
(0.109596 0.0515123 0)
(0.121414 0.03883 0)
(0.133978 0.025428 6.82739e-20)
(0.147711 0.0112172 -3.29442e-18)
(0.163066 -0.00386879 5.39935e-18)
(0.180922 -0.0200541 7.60564e-20)
(0.206973 -0.0388061 2.1199e-18)
(0.274744 -0.0710408 0)
(0.468507 -0.159968 8.14422e-20)
(0.71316 -0.381473 7.34722e-20)
(0.0807436 0.0688573 -2.4445e-18)
(0.0918959 0.056907 -2.68021e-18)
(0.103084 0.0442894 2.80866e-18)
(0.114588 0.0307964 -3.06426e-18)
(0.126818 0.0161927 -1.69327e-19)
(0.140236 0.000279011 6.51662e-18)
(0.155507 -0.0171972 -3.55236e-18)
(0.173793 -0.0365417 1.82955e-18)
(0.200118 -0.0599154 0)
(0.265074 -0.101778 1.44533e-18)
(0.456634 -0.22173 1.87199e-18)
(0.702592 -0.533218 -6.98453e-18)
(0.0740977 0.0622838 2.57496e-18)
(0.0849066 0.0502675 -2.57488e-18)
(0.0955563 0.0373377 -2.80026e-18)
(0.10636 0.023217 -5.90718e-18)
(0.117695 0.00760033 6.15758e-18)
(0.130101 -0.00990835 -6.42845e-18)
(0.144331 -0.029733 0)
(0.161715 -0.0526393 -1.82375e-18)
(0.187062 -0.0814092 0)
(0.247586 -0.134072 0)
(0.42979 -0.286341 0)
(0.631001 -0.660915 3.03994e-18)
(0.067324 0.0558537 2.42103e-18)
(0.077548 0.0439881 -5.19993e-18)
(0.0873869 0.030965 5.43914e-18)
(0.0971251 0.0164828 5.63924e-18)
(0.107093 0.000136155 2.92957e-18)
(0.117745 -0.0186091 0)
(0.129815 -0.0405223 0)
(0.144731 -0.0668628 3.37937e-18)
(0.166827 -0.101439 0)
(0.219219 -0.165714 -1.22727e-18)
(0.38423 -0.352314 1.37805e-18)
(0.521127 -0.769152 -4.4643e-18)
(0.0606818 0.0497776 -4.90389e-18)
(0.0701252 0.0382645 5.15246e-18)
(0.0789472 0.0253878 -5.39021e-18)
(0.087361 0.0108374 -1.40277e-17)
(0.0955851 -0.00583222 5.80124e-20)
(0.103895 -0.0252764 2.22443e-20)
(0.112765 -0.0485586 -3.10362e-18)
(0.1232 -0.0775331 -3.34857e-18)
(0.138776 -0.117159 0)
(0.17673 -0.191481 3.22316e-18)
(0.306683 -0.408156 1.29685e-18)
(0.390785 -0.855866 -3.28834e-18)
(0.054381 0.0442235 1.04686e-20)
(0.0628911 0.0332346 0)
(0.0705579 0.0207187 0)
(0.0775128 0.00640307 2.71265e-18)
(0.0838106 -0.0101318 8.46764e-18)
(0.0894389 -0.0295843 -2.95686e-18)
(0.0943821 -0.0531321 9.27052e-20)
(0.0987524 -0.0829682 -1.47671e-18)
(0.10371 -0.124503 -1.60495e-18)
(0.116552 -0.19995 -2.00006e-18)
(0.170749 -0.415676 0)
(0.21237 -1.20453 2.1428e-18)
(1.07733 -0.226076 -2.79904e-21)
(1.19488 -0.19175 0)
(1.10257 -0.199831 1.16378e-20)
(1.0134 -0.23379 0)
(0.965513 -0.279514 4.90259e-18)
(0.927562 -0.328508 -4.89534e-18)
(0.886425 -0.377736 0)
(0.842661 -0.425936 -1.70413e-17)
(0.796575 -0.472792 3.18296e-17)
(0.750623 -0.518702 -2.45123e-17)
(0.704775 -0.564164 -5.72282e-18)
(0.65989 -0.609667 -6.29778e-18)
(0.763289 -0.178754 -1.21575e-19)
(0.639166 -0.0977786 -3.14911e-19)
(0.46236 -0.0763433 3.1327e-19)
(0.369073 -0.0758318 0)
(0.327015 -0.0840823 -9.8316e-19)
(0.303823 -0.0961614 9.63703e-19)
(0.285984 -0.110222 0)
(0.269543 -0.125123 1.57234e-18)
(0.253301 -0.140509 -5.618e-18)
(0.237248 -0.15599 3.81466e-18)
(0.221252 -0.171614 4.69993e-18)
(0.205597 -0.187373 -7.40039e-18)
(0.703771 -0.0875388 3.33087e-20)
(0.507322 -0.0408403 0)
(0.323686 -0.0335298 -1.61145e-19)
(0.241901 -0.0354603 0)
(0.207093 -0.0412469 0)
(0.188433 -0.0489423 -6.8661e-19)
(0.174887 -0.0576912 2.75352e-18)
(0.163034 -0.0670844 -2.30653e-18)
(0.151832 -0.0768911 9.24846e-19)
(0.140981 -0.0869337 0)
(0.130363 -0.0971457 2.3157e-18)
(0.119962 -0.107506 -1.27223e-18)
(0.711641 0.0248691 -7.42249e-20)
(0.490705 0.0076675 6.83089e-20)
(0.30194 -0.00688134 1.42086e-19)
(0.222822 -0.0158572 3.9849e-19)
(0.189928 -0.0243606 -3.47043e-19)
(0.171701 -0.0332063 -5.08601e-19)
(0.158006 -0.0424387 0)
(0.145974 -0.0519418 0)
(0.134753 -0.0616497 8.47134e-19)
(0.124042 -0.071481 0)
(0.113684 -0.0814005 9.91136e-21)
(0.103569 -0.0914091 1.12757e-18)
(0.726558 0.148531 1.52486e-19)
(0.492649 0.0579882 1.67635e-21)
(0.300746 0.0191024 -1.67645e-19)
(0.222411 0.00192749 0)
(0.189624 -0.0100745 0)
(0.170551 -0.0210778 5.5494e-19)
(0.155749 -0.0318899 0)
(0.14273 -0.0426577 -1.60604e-18)
(0.130693 -0.0533821 -1.0398e-18)
(0.119339 -0.0640201 1.80157e-18)
(0.10843 -0.0746117 -3.21084e-18)
(0.0978089 -0.0851637 2.17424e-18)
(0.734123 0.285052 -1.62474e-20)
(0.493809 0.112381 -7.98971e-20)
(0.300389 0.0470179 1.59651e-19)
(0.222911 0.0209287 -4.38978e-20)
(0.189763 0.0049479 4.05026e-19)
(0.169595 -0.00858353 -1.15509e-18)
(0.15375 -0.0213321 1.46941e-18)
(0.139862 -0.0336622 1.30996e-19)
(0.127179 -0.0456171 0)
(0.115308 -0.0572432 0)
(0.103945 -0.068593 4.34809e-18)
(0.0928817 -0.0797681 1.73172e-19)
(0.732422 0.439454 -1.90266e-19)
(0.48954 0.172947 -2.19604e-19)
(0.29646 0.0778166 0)
(0.220143 0.0417295 -3.98708e-19)
(0.186667 0.0210829 5.39969e-19)
(0.165706 0.00460092 1.88161e-18)
(0.149207 -0.0103683 1.48241e-18)
(0.134922 -0.0243922 6.06139e-20)
(0.122012 -0.0376145 -3.75088e-18)
(0.109973 -0.0501856 1.90638e-18)
(0.0984772 -0.0622127 2.2661e-18)
(0.0871894 -0.0738543 8.75047e-20)
(0.717496 0.619727 9.16729e-20)
(0.477762 0.242523 2.70807e-19)
(0.287236 0.11229 0)
(0.212745 0.0642036 -5.17485e-19)
(0.179363 0.0380257 -5.3831e-19)
(0.158227 0.0180372 1.44933e-19)
(0.141778 0.000612159 -2.90827e-18)
(0.127726 -0.0151594 1.16348e-19)
(0.115096 -0.0296154 5.93779e-20)
(0.103333 -0.0430119 2.04971e-18)
(0.0920236 -0.0555723 -2.2389e-18)
(0.080811 -0.0674993 -6.99234e-20)
(0.667971 0.81586 -7.73336e-19)
(0.454337 0.323373 1.72185e-19)
(0.270513 0.150484 -8.31656e-19)
(0.199371 0.0877464 5.09126e-19)
(0.167237 0.0548906 0)
(0.147066 0.0309631 0)
(0.131618 0.010979 1.64287e-18)
(0.118538 -0.00646596 3.63612e-18)
(0.106758 -0.0220037 -1.83945e-18)
(0.0956898 -0.0360533 -2.04347e-18)
(0.0848995 -0.0489516 -2.19192e-18)
(0.0740369 -0.0609573 0)
(0.524092 0.942676 -2.05097e-20)
(0.406898 0.407961 6.29816e-19)
(0.242381 0.190046 1.28266e-18)
(0.178384 0.110481 0)
(0.149856 0.070248 1.43223e-18)
(0.132388 0.0423312 0)
(0.119134 0.0200058 1.14875e-19)
(0.107806 0.00116574 -1.64495e-18)
(0.0974127 -0.0151729 2.07076e-18)
(0.0874098 -0.0296314 0)
(0.0774274 -0.0426386 0)
(0.0671563 -0.0545114 -4.68198e-18)
(0.267213 0.947645 -1.16602e-18)
(0.320708 0.482869 7.25043e-19)
(0.195711 0.22301 1.43279e-19)
(0.148046 0.128693 -1.48662e-18)
(0.127357 0.0820731 -6.37753e-19)
(0.114804 0.0509925 -7.71708e-19)
(0.104957 0.0270075 -1.78355e-18)
(0.0960882 0.00731163 -5.72119e-18)
(0.0875009 -0.00943388 -1.99579e-18)
(0.0788496 -0.0239988 -4.23266e-18)
(0.0699025 -0.0368825 4.44526e-18)
(0.0604294 -0.0484198 4.63831e-18)
(-0.0099842 0.87956 1.22771e-18)
(0.146482 0.462958 -2.72343e-19)
(0.122306 0.23003 1.45909e-19)
(0.108037 0.136511 1.44954e-18)
(0.100959 0.0881591 0)
(0.0955287 0.0559972 -1.74697e-18)
(0.0900069 0.0315511 1.76317e-18)
(0.0840173 0.0117366 1.84034e-18)
(0.0774619 -0.00493885 -6.01656e-18)
(0.0703286 -0.0192938 4.18438e-18)
(0.0625737 -0.0318325 -4.39514e-18)
(0.0540555 -0.0428616 0)
(0.614552 -0.654974 2.17141e-17)
(0.569535 -0.700837 -5.94688e-17)
(0.523855 -0.747293 1.48739e-17)
(0.477727 -0.794586 4.40709e-17)
(0.43005 -0.841925 -4.46317e-17)
(0.381011 -0.888354 9.75544e-18)
(0.330245 -0.931938 6.139e-19)
(0.278219 -0.969198 -9.74968e-18)
(0.226539 -1.00941 -2.24825e-17)
(0.188558 -1.1261 0)
(0.168963 -1.25681 0)
(0.200966 -1.13317 -2.0652e-20)
(0.190002 -0.203359 -4.40113e-19)
(0.174593 -0.219584 5.59737e-18)
(0.159183 -0.236229 4.39123e-21)
(0.143763 -0.253093 0)
(0.128204 -0.27019 5.3812e-18)
(0.112765 -0.287322 0)
(0.0975782 -0.304525 4.06153e-18)
(0.0832132 -0.323491 6.57943e-18)
(0.0715061 -0.358143 -4.62641e-18)
(0.0689622 -0.456072 0)
(0.0839477 -0.654689 0)
(0.177153 -0.796403 -2.7195e-20)
(0.109673 -0.118014 1.48834e-18)
(0.0994933 -0.128709 -1.37996e-18)
(0.0893606 -0.139637 1.60444e-18)
(0.0792937 -0.150814 0)
(0.0693081 -0.162303 -1.83578e-18)
(0.0595419 -0.174139 4.03406e-18)
(0.0500975 -0.186525 -5.00698e-18)
(0.0410568 -0.200968 -5.52992e-18)
(0.0334433 -0.22806 3.70767e-18)
(0.0306164 -0.305478 0)
(0.0385971 -0.495553 2.61792e-18)
(0.111802 -0.703894 2.577e-18)
(0.0935952 -0.101529 1.22394e-18)
(0.0837025 -0.111819 -2.64072e-18)
(0.0738296 -0.12236 2.93299e-18)
(0.0639753 -0.133226 -2.93327e-18)
(0.054134 -0.144558 0)
(0.0444045 -0.156433 1.71571e-18)
(0.0347458 -0.169025 1.90466e-18)
(0.0251891 -0.183341 1.09692e-18)
(0.0158856 -0.208089 -2.15066e-18)
(0.00741829 -0.280829 0)
(-0.00331972 -0.470531 -2.41809e-18)
(0.0111437 -0.690234 9.27235e-18)
(0.087323 -0.0957743 2.537e-18)
(0.076847 -0.106517 -1.22225e-18)
(0.0663151 -0.117528 0)
(0.0556304 -0.128959 0)
(0.0448524 -0.140993 1.58919e-18)
(0.0338639 -0.153793 -1.70799e-18)
(0.0228664 -0.167565 2.0873e-20)
(0.0115697 -0.183124 0)
(-0.000264737 -0.207852 -1.08404e-18)
(-0.0157411 -0.279266 1.67128e-18)
(-0.0496325 -0.471168 -4.38569e-18)
(-0.100655 -0.701118 -4.50986e-18)
(0.0818723 -0.0908568 -4.94251e-18)
(0.0708024 -0.102038 2.55781e-18)
(0.0594824 -0.113441 5.71884e-18)
(0.0478712 -0.125343 1.84529e-19)
(0.0358364 -0.137921 -7.86366e-18)
(0.0233926 -0.151548 -3.35938e-18)
(0.0105356 -0.166434 2.96009e-20)
(-0.00291193 -0.183405 0)
(-0.0178244 -0.208954 0)
(-0.0412694 -0.278731 -1.60261e-18)
(-0.100534 -0.472665 -1.98451e-18)
(-0.230536 -0.71417 4.34096e-18)
(0.0758852 -0.0852632 2.56783e-18)
(0.0643426 -0.0966189 -5.21021e-18)
(0.0523756 -0.108174 -2.82515e-18)
(0.0398537 -0.120142 1.07685e-19)
(0.0265732 -0.132929 3.36708e-18)
(0.0125224 -0.146825 3.5732e-18)
(-0.00251341 -0.162412 1.85428e-18)
(-0.0185691 -0.180507 1.94704e-18)
(-0.0373582 -0.20665 -2.01695e-18)
(-0.0691503 -0.274636 0)
(-0.15649 -0.468853 3.74894e-18)
(-0.370875 -0.712487 -3.94172e-18)
(0.0694259 -0.0789879 0)
(0.0576173 -0.0902804 2.64529e-18)
(0.0451754 -0.10162 0)
(0.0318459 -0.113317 -6.27395e-20)
(0.01743 -0.125721 -1.69087e-19)
(0.00165159 -0.139354 6.45027e-18)
(-0.0156629 -0.15481 -6.94464e-18)
(-0.0349704 -0.17324 0)
(-0.058215 -0.199753 -1.97719e-18)
(-0.0996651 -0.26475 1.43409e-18)
(-0.217988 -0.456571 -5.00743e-18)
(-0.523731 -0.703255 1.07041e-17)
(0.0628099 -0.072312 2.54788e-18)
(0.050959 -0.0832687 -2.54763e-18)
(0.0382226 -0.0940986 -2.74229e-18)
(0.024305 -0.105093 2.87819e-18)
(0.00887952 -0.116632 3.12617e-18)
(-0.00844214 -0.129219 -9.53224e-18)
(-0.0281331 -0.14363 3.41864e-18)
(-0.0509047 -0.161214 0)
(-0.0795238 -0.186605 1.96082e-18)
(-0.131667 -0.247181 0)
(-0.282622 -0.430714 4.49216e-18)
(-0.654725 -0.634743 -1.16908e-17)
(0.0563195 -0.0655169 0)
(0.0446433 -0.075914 -5.15453e-18)
(0.0318378 -0.085951 -2.66835e-18)
(0.0175739 -0.0958935 -5.76276e-18)
(0.00144449 -0.106068 2.90374e-18)
(-0.0171141 -0.116919 3.14586e-18)
(-0.0388572 -0.129172 0)
(-0.0650517 -0.144226 0)
(-0.099391 -0.166501 0)
(-0.162814 -0.218721 0)
(-0.347949 -0.384662 -1.34598e-18)
(-0.764179 -0.525419 2.3839e-19)
(0.050178 -0.0588831 2.49031e-18)
(0.0388749 -0.0685198 2.61655e-18)
(0.0262303 -0.0775555 1.0633e-17)
(0.0119156 -0.0861899 2.67364e-18)
(-0.00453251 -0.094629 1.14869e-17)
(-0.0237871 -0.103137 -2.94369e-18)
(-0.0468906 -0.112195 -3.07855e-18)
(-0.075696 -0.122852 0)
(-0.115036 -0.138562 -3.37027e-18)
(-0.188493 -0.176619 -2.08954e-18)
(-0.403448 -0.307465 -2.186e-18)
(-0.848994 -0.393227 -2.01437e-25)
(0.0445508 -0.0526116 0)
(0.0337872 -0.0613355 0)
(0.0215156 -0.0692327 -1.04092e-17)
(0.00744302 -0.0764199 -8.18927e-18)
(-0.00887697 -0.0829374 -2.90248e-18)
(-0.0281362 -0.0887715 0)
(-0.0515161 -0.0939223 3.04335e-18)
(-0.0811964 -0.0985078 0)
(-0.122469 -0.103793 1.60162e-19)
(-0.197159 -0.116964 1.98289e-18)
(-0.410834 -0.17162 9.12814e-19)
(-1.19495 -0.214747 4.45013e-18)
(-0.194481 -1.11166 2.09111e-19)
(-0.16543 -1.2337 -1.42281e-18)
(-0.188293 -1.12825 1.11721e-18)
(-0.229449 -1.02692 -1.90285e-18)
(-0.277196 -0.970656 0)
(-0.326834 -0.928126 3.07308e-18)
(-0.376514 -0.885286 0)
(-0.425043 -0.840998 4.25539e-18)
(-0.472414 -0.795291 -1.55971e-17)
(-0.518827 -0.749831 1.50472e-17)
(-0.564748 -0.704341 3.69421e-17)
(-0.610554 -0.659636 -1.19547e-17)
(-0.168496 -0.790244 1.08485e-20)
(-0.0819339 -0.657364 -5.46212e-19)
(-0.0696174 -0.473184 2.83698e-19)
(-0.0734121 -0.375656 4.06959e-19)
(-0.0836749 -0.331321 -1.11042e-18)
(-0.096767 -0.306783 -1.19772e-19)
(-0.111376 -0.288078 -1.44357e-18)
(-0.126568 -0.271035 -4.40344e-18)
(-0.142123 -0.254379 5.69253e-18)
(-0.157698 -0.238022 -1.89451e-18)
(-0.173402 -0.221796 2.89963e-21)
(-0.189139 -0.205875 2.19023e-19)
(-0.0999277 -0.710517 -6.35754e-20)
(-0.0370345 -0.513497 0)
(-0.0314988 -0.32786 0)
(-0.0349155 -0.24458 -2.17161e-19)
(-0.0416247 -0.208922 0)
(-0.0498874 -0.189743 -3.14705e-19)
(-0.0589983 -0.175845 7.40621e-19)
(-0.0685915 -0.163719 1.83893e-18)
(-0.07851 -0.152266 -7.51448e-19)
(-0.0885925 -0.141201 -2.06333e-18)
(-0.0988257 -0.130395 -3.71831e-18)
(-0.109147 -0.119794 3.83154e-18)
(0.00137303 -0.711976 -4.54072e-20)
(0.00698948 -0.493462 -1.18558e-19)
(-0.00661602 -0.303922 1.96203e-19)
(-0.0161413 -0.223982 1.91013e-19)
(-0.0251533 -0.190725 0)
(-0.0344239 -0.172304 -1.24209e-18)
(-0.0439215 -0.158474 1.22068e-18)
(-0.0535941 -0.146287 0)
(-0.0633811 -0.134896 1.8372e-18)
(-0.0732379 -0.124005 -2.81676e-18)
(-0.0831401 -0.113466 2.23367e-18)
(-0.0930941 -0.103166 9.6042e-20)
(0.123191 -0.728519 4.36252e-20)
(0.0558033 -0.49451 2.36889e-19)
(0.0185994 -0.301749 1.68579e-20)
(0.00131222 -0.222836 0)
(-0.0110526 -0.18988 -5.29568e-19)
(-0.0223493 -0.170794 1.07916e-18)
(-0.0334056 -0.155986 0)
(-0.0443209 -0.142891 -7.93978e-19)
(-0.0551239 -0.13074 -9.83989e-19)
(-0.065787 -0.119232 1.86059e-18)
(-0.0763496 -0.108158 0)
(-0.0868486 -0.0973673 -2.32068e-18)
(0.259732 -0.734919 2.30246e-19)
(0.109255 -0.494465 9.49482e-20)
(0.046042 -0.30077 -1.92431e-19)
(0.0200096 -0.222823 -9.28145e-19)
(0.00380611 -0.189655 -1.20836e-19)
(-0.00995689 -0.169613 1.17042e-18)
(-0.0229042 -0.153819 0)
(-0.0353705 -0.139923 2.44855e-18)
(-0.0474007 -0.127155 -1.90507e-18)
(-0.0590411 -0.115153 1.90478e-18)
(-0.0703639 -0.103646 -7.91676e-20)
(-0.081467 -0.0924176 -1.72877e-19)
(0.415682 -0.733116 -3.30909e-19)
(0.169358 -0.489811 -1.69059e-19)
(0.0765045 -0.29648 0)
(0.0405058 -0.219771 9.59055e-19)
(0.0197664 -0.186351 -1.64336e-18)
(0.00309051 -0.165545 2.42448e-20)
(-0.0120352 -0.149144 -2.9106e-18)
(-0.0261759 -0.13488 1.15236e-19)
(-0.0394697 -0.121922 -1.77153e-18)
(-0.052044 -0.109782 -2.04849e-18)
(-0.0640306 -0.0981421 2.2984e-18)
(-0.0755954 -0.0867174 -2.28216e-18)
(0.598131 -0.718016 1.00282e-19)
(0.238755 -0.477961 -1.31873e-19)
(0.110666 -0.287125 0)
(0.0627433 -0.212156 5.42553e-19)
(0.036489 -0.178867 5.89046e-19)
(0.0163905 -0.157937 6.96256e-19)
(-0.00117166 -0.141608 -1.24339e-19)
(-0.0170335 -0.127607 -1.7294e-19)
(-0.0315467 -0.11496 -2.09149e-18)
(-0.0449354 -0.103116 -1.87139e-19)
(-0.0574404 -0.0916821 -6.87346e-20)
(-0.0692774 -0.0803451 0)
(0.795788 -0.668367 4.03483e-19)
(0.319228 -0.454367 0)
(0.14859 -0.270377 0)
(0.0859907 -0.198646 -5.33837e-19)
(0.0531572 -0.166622 6.12022e-19)
(0.0291659 -0.146677 -1.50872e-18)
(0.00910041 -0.131391 0)
(-0.00842421 -0.118376 1.86831e-18)
(-0.0239935 -0.106609 5.35531e-20)
(-0.038031 -0.0954771 2.07404e-18)
(-0.0508582 -0.084583 -2.23947e-18)
(-0.0627637 -0.0735962 4.7444e-18)
(0.923263 -0.522904 1.58538e-18)
(0.402574 -0.40608 -2.15317e-19)
(0.187558 -0.241694 -7.29963e-19)
(0.108414 -0.177531 -1.35824e-18)
(0.0683344 -0.149222 0)
(0.0404305 -0.131972 1.49828e-18)
(0.0180604 -0.118877 -3.50875e-18)
(-0.000828878 -0.107635 1.80753e-18)
(-0.0171945 -0.0972739 2.08765e-18)
(-0.0316361 -0.0872363 0)
(-0.0445757 -0.0771695 -2.26019e-18)
(-0.0563382 -0.0667764 -4.71352e-18)
(0.933227 -0.266878 -1.18998e-18)
(0.475264 -0.318867 2.81825e-19)
(0.219467 -0.194421 7.13951e-19)
(0.126355 -0.147222 5.83024e-19)
(0.0800643 -0.126794 -7.46109e-20)
(0.0490537 -0.11444 -2.60082e-18)
(0.0250597 -0.104735 3.41838e-18)
(0.0053304 -0.0959506 7.61908e-18)
(-0.0114418 -0.0874037 -5.90306e-18)
(-0.0259992 -0.0787407 -4.26313e-18)
(-0.0388234 -0.0697251 4.44559e-18)
(-0.0502503 -0.0601243 0)
(0.866748 0.00907908 1.95255e-18)
(0.45495 -0.145518 5.00001e-19)
(0.226107 -0.121488 4.13441e-19)
(0.134114 -0.107498 1.64491e-18)
(0.0861264 -0.100559 0)
(0.0540882 -0.0952693 1.66341e-18)
(0.0296654 -0.0898693 -3.70032e-18)
(0.00982065 -0.0839507 -1.81091e-18)
(-0.0068886 -0.0774376 -1.96966e-18)
(-0.0212541 -0.070299 4.21465e-18)
(-0.0337445 -0.0624705 2.18609e-18)
(-0.0446606 -0.0538204 6.92111e-18)
(-0.656187 -0.614467 -7.1087e-18)
(-0.701889 -0.569207 7.66455e-18)
(-0.747904 -0.523127 -2.58762e-17)
(-0.79425 -0.476379 7.93946e-17)
(-0.840465 -0.428154 -3.64317e-17)
(-0.885506 -0.378609 0)
(-0.9277 -0.327523 -2.17589e-17)
(-0.963579 -0.275258 1.61706e-17)
(-1.00304 -0.223437 0)
(-1.1199 -0.185304 1.06008e-20)
(-1.25172 -0.165306 0)
(-1.1297 -0.194393 -2.3317e-18)
(-0.205065 -0.190028 -1.11315e-17)
(-0.221133 -0.174345 5.77898e-18)
(-0.237585 -0.158679 6.67511e-18)
(-0.254159 -0.14301 -3.23527e-18)
(-0.270896 -0.127217 0)
(-0.28762 -0.111592 0)
(-0.304356 -0.0962386 4.26635e-18)
(-0.322818 -0.0817389 -4.26473e-18)
(-0.357065 -0.069874 0)
(-0.454654 -0.0667784 1.80966e-18)
(-0.652979 -0.0799914 2.31766e-19)
(-0.794969 -0.165278 -1.17045e-17)
(-0.119578 -0.109295 1.42235e-18)
(-0.130154 -0.0989215 -3.06793e-18)
(-0.140949 -0.0886142 0)
(-0.15193 -0.0783787 -3.5207e-18)
(-0.163172 -0.0682467 -3.87304e-18)
(-0.174722 -0.058358 7.98953e-18)
(-0.186773 -0.0488212 -6.23e-18)
(-0.200861 -0.0397357 0)
(-0.227687 -0.0320705 0)
(-0.304924 -0.0287404 0)
(-0.495088 -0.0345624 -2.64288e-18)
(-0.703934 -0.0971799 2.62867e-18)
(-0.103126 -0.0930103 -1.26019e-18)
(-0.113305 -0.0829445 6.20593e-21)
(-0.123696 -0.0729145 0)
(-0.134382 -0.0629127 1.20572e-20)
(-0.145483 -0.0529614 0)
(-0.15712 -0.0431272 0)
(-0.169434 -0.0334535 1.87084e-18)
(-0.183482 -0.02387 -2.04256e-18)
(-0.208033 -0.0146251 2.17684e-18)
(-0.280661 -0.00572361 0)
(-0.470595 0.00716202 -2.38874e-18)
(-0.69191 0.0028073 -1.19927e-17)
(-0.097368 -0.086712 5.0913e-18)
(-0.107998 -0.0760862 -1.24752e-18)
(-0.11887 -0.0653981 2.96082e-18)
(-0.130126 -0.0546086 1.72641e-18)
(-0.141959 -0.0436869 -4.76711e-18)
(-0.154538 -0.0326756 0)
(-0.168071 -0.0215835 -1.82207e-18)
(-0.183384 -0.0103578 0)
(-0.208007 0.00145027 0)
(-0.279329 0.0173413 1.68812e-18)
(-0.471801 0.0531683 -4.37845e-20)
(-0.703118 0.113721 1.35941e-17)
(-0.0924747 -0.0812687 -2.69439e-18)
(-0.10353 -0.0700408 -7.79145e-20)
(-0.11481 -0.0586018 0)
(-0.126536 -0.0468476 0)
(-0.138958 -0.0347232 -4.91785e-18)
(-0.152355 -0.0221766 3.33541e-18)
(-0.167042 -0.00927319 3.64385e-18)
(-0.18383 0.00415021 1.99923e-18)
(-0.209161 0.0191291 -4.21453e-18)
(-0.278837 0.0428404 -1.61643e-18)
(-0.473173 0.103998 0)
(-0.716479 0.242261 1.31064e-17)
(-0.0869059 -0.0752708 -5.13054e-18)
(-0.0981576 -0.0635873 2.62575e-18)
(-0.109555 -0.0514791 2.93968e-18)
(-0.121394 -0.0388059 6.3817e-20)
(-0.133984 -0.0254144 5.38892e-20)
(-0.147739 -0.0112167 -3.35686e-18)
(-0.163112 0.00385364 -5.36786e-18)
(-0.180986 0.0200195 -1.883e-18)
(-0.207072 0.0387578 2.12333e-18)
(-0.274945 0.0709816 0)
(-0.469161 0.15994 5.62587e-18)
(-0.713822 0.380122 -7.98954e-18)
(-0.0806716 -0.0688233 5.12404e-18)
(-0.0918397 -0.0568698 -2.57913e-18)
(-0.103036 -0.0442502 -2.81092e-18)
(-0.114561 -0.0307644 -6.07354e-18)
(-0.12682 -0.0161733 6.24548e-18)
(-0.140265 -0.000271847 -5.83681e-20)
(-0.155561 0.0171877 1.04394e-17)
(-0.17387 0.036515 1.88493e-18)
(-0.200219 0.0598772 1.99661e-18)
(-0.265178 0.101714 0)
(-0.456832 0.221535 -3.43237e-18)
(-0.703061 0.531661 -7.37182e-18)
(-0.0740067 -0.0622358 0)
(-0.0848361 -0.0502207 2.65648e-18)
(-0.0955015 -0.0372926 2.80268e-18)
(-0.106326 -0.0231808 -3.00478e-18)
(-0.11769 -0.00757635 -4.41509e-20)
(-0.130128 0.00991812 -3.19778e-18)
(-0.144394 0.0297291 -3.45477e-18)
(-0.161813 0.0526201 0)
(-0.187169 0.0813638 -1.97997e-18)
(-0.247491 0.13392 -1.3385e-18)
(-0.430422 0.286351 7.47947e-18)
(-0.630784 0.658696 -5.82759e-18)
(-0.0672135 -0.0557889 0)
(-0.0774599 -0.0439289 0)
(-0.0873255 -0.0309151 0)
(-0.097087 -0.0164434 -8.61952e-18)
(-0.107084 -0.000111377 5.86209e-18)
(-0.117773 0.0186196 6.2456e-18)
(-0.12988 0.0405204 0)
(-0.144836 0.0668428 -3.38432e-18)
(-0.166896 0.101363 0)
(-0.218668 0.165188 -2.31397e-18)
(-0.384776 0.352061 -1.35985e-18)
(-0.521535 0.767705 -4.48548e-18)
(-0.0605609 -0.0497031 0)
(-0.0700238 -0.0381941 0)
(-0.0788699 -0.0253291 5.33486e-18)
(-0.087309 -0.010795 8.48778e-18)
(-0.0955692 0.00585575 -2.88204e-20)
(-0.10392 0.0252866 2.99385e-18)
(-0.112831 0.0485544 -1.6113e-18)
(-0.12332 0.077514 4.96512e-18)
(-0.138889 0.117078 3.39949e-18)
(-0.176392 0.190789 2.22334e-18)
(-0.307493 0.408265 -2.21784e-18)
(-0.391424 0.853864 -3.24221e-18)
(-0.0542487 -0.0441378 0)
(-0.0627818 -0.0331567 0)
(-0.0704722 -0.0206551 -5.27368e-18)
(-0.0774543 -0.0063591 2.63452e-18)
(-0.0837823 0.010155 -2.92855e-18)
(-0.0894505 0.0295893 -2.95936e-18)
(-0.0944484 0.0531254 2.97911e-18)
(-0.0988946 0.0829633 0)
(-0.103907 0.124468 -3.35418e-18)
(-0.116691 0.199605 -1.87573e-18)
(-0.171037 0.415361 2.69454e-18)
(-0.213025 1.20159 -4.14528e-18)
(-1.11072 0.191522 -1.85486e-20)
(-1.23165 0.163285 0)
(-1.1255 0.186271 0)
(-1.02336 0.227254 -4.39398e-18)
(-0.966434 0.274615 6.75351e-18)
(-0.923598 0.323896 0)
(-0.880233 0.372958 0)
(-0.835356 0.420784 4.21164e-18)
(-0.789141 0.467362 4.78869e-18)
(-0.743259 0.512937 1.60224e-17)
(-0.697701 0.558105 3.05858e-17)
(-0.65322 0.603369 -5.34749e-18)
(-0.78912 0.163451 -1.22601e-19)
(-0.65643 0.0795987 0)
(-0.47236 0.0680848 0)
(-0.374804 0.0721247 -3.93769e-19)
(-0.330472 0.0823989 1.096e-18)
(-0.305934 0.0954625 -3.70816e-18)
(-0.287254 0.110006 2.62027e-18)
(-0.270206 0.125136 8.3471e-19)
(-0.253552 0.140607 -1.87492e-18)
(-0.237223 0.156118 7.39465e-21)
(-0.22106 0.171746 0)
(-0.205197 0.187408 -5.06425e-18)
(-0.709957 0.0942908 5.83906e-20)
(-0.513012 0.0346413 0)
(-0.327444 0.030101 0)
(-0.244217 0.0338075 2.04541e-21)
(-0.208599 0.0405715 4.49768e-22)
(-0.189438 0.0488295 -6.21634e-19)
(-0.175563 0.0579141 0)
(-0.163454 0.0674917 -2.67393e-18)
(-0.152038 0.0773866 2.79565e-18)
(-0.141035 0.0874637 -1.07824e-18)
(-0.130305 0.0976846 -2.49013e-18)
(-0.119786 0.108003 3.79023e-18)
(-0.712003 -0.00720019 -2.05665e-20)
(-0.493208 -0.00953036 1.1738e-19)
(-0.303668 0.00518751 0)
(-0.223795 0.0149965 1.89608e-19)
(-0.190546 0.0240788 -2.25114e-19)
(-0.172138 0.0333044 5.50768e-19)
(-0.158308 0.0427831 0)
(-0.146143 0.0524218 -7.75033e-19)
(-0.134789 0.0622 -2.69551e-18)
(-0.123971 0.0720485 1.83251e-18)
(-0.113516 0.081959 2.21317e-18)
(-0.103315 0.091921 -4.52281e-18)
(-0.728332 -0.129645 1.97505e-20)
(-0.494048 -0.0586998 -1.09094e-19)
(-0.301579 -0.0202799 2.01344e-19)
(-0.222751 -0.00258849 0)
(-0.189812 0.0098234 -1.0112e-18)
(-0.170704 0.0211254 1.09884e-18)