/*--------------------------------*- C++ -*----------------------------------*\
  =========                 |
  \\      /  F ield         | OpenFOAM: The Open Source CFD Toolbox
   \\    /   O peration     | Website:  https://openfoam.org
    \\  /    A nd           | Version:  6
     \\/     M anipulation  |
\*---------------------------------------------------------------------------*/
FoamFile
{
    version     2.0;
    format      ascii;
    class       volScalarField;
    location    "1000";
    object      epsilon;
}
// * * * * * * * * * * * * * * * * * * * * * * * * * * * * * * * * * * * * * //

dimensions      [0 2 -3 0 0 0 0];

internalField   nonuniform List<scalar> 
768
(
493.513
288.592
293.096
294.156
294.424
294.482
294.517
294.522
294.531
294.532
294.549
294.545
448.544
134.451
81.6928
65.3807
60.0527
58.1659
57.4059
57.0128
56.8153
56.6891
56.6458
56.6223
405.817
108.813
48.6886
31.8496
27.0138
25.6144
25.2195
25.1198
25.0953
25.0707
25.0633
25.0814
370.2
100.034
41.6971
26.1489
21.958
20.8379
20.5511
20.4777
20.459
20.4541
20.456
20.4611
340.344
92.7981
38.4444
24.5087
20.8918
19.9715
19.7459
19.6925
19.6794
19.6777
19.6793
19.6808
315.216
86.4927
36.0851
23.6241
20.5065
19.7469
19.5681
19.5267
19.5184
19.515
19.5154
19.5191
293.751
81.0727
34.17
22.9534
20.2729
19.6414
19.4963
19.4676
19.4598
19.4577
19.4625
19.4657
275.251
76.2498
32.5318
22.4386
20.102
19.5702
19.4518
19.427
19.4217
19.4179
19.4233
19.4275
259.045
72.321
31.2961
22.0335
19.9672
19.5082
19.4109
19.3889
19.3839
19.3843
19.387
19.3923
244.828
69.8183
30.4158
21.7687
19.8718
19.4617
19.3739
19.3625
19.3666
19.3573
19.355
19.3576
232.243
68.9958
29.7664
21.5428
19.786
19.4258
19.3458
19.3374
19.3439
19.3321
19.3268
19.3287
224.497
63.8856
27.9694
21.0729
19.6677
19.3808
19.3153
19.3058
19.3154
19.3123
19.3065
19.3067
294.552
294.544
294.55
294.54
294.552
294.526
294.515
294.512
294.498
294.454
289.186
489.913
56.6381
56.6578
56.6788
56.7255
56.7502
56.7638
56.7358
57.128
60.7038
78.8284
140.46
447.125
25.0993
25.1116
25.1202
25.1358
25.1337
25.1189
25.1149
25.5643
28.7207
44.6609
103.083
405.126
20.4651
20.4691
20.4727
20.4779
20.4789
20.4792
20.4797
20.8153
23.2774
37.0266
90.2623
369.702
19.6794
19.6787
19.6795
19.6824
19.6854
19.6868
19.6872
19.9322
21.9509
33.7702
81.831
340.259
19.5214
19.5174
19.5164
19.5187
19.519
19.5185
19.5214
19.7112
21.3291
31.5695
75.3307
315.177
19.4652
19.4642
19.4627
19.4616
19.4587
19.4608
19.4625
19.6065
20.9243
29.7236
69.6517
293.898
19.4256
19.4215
19.4243
19.4265
19.4257
19.4256
19.4273
19.5394
20.613
28.2832
65.2342
275.825
19.3948
19.3904
19.3932
19.3963
19.3948
19.4
19.4015
19.4744
20.3805
26.9785
60.7843
259.86
19.361
19.3577
19.3588
19.3646
19.362
19.3666
19.3691
19.4261
20.1681
25.8838
56.811
245.588
19.3251
19.3234
19.3307
19.3287
19.329
19.3365
19.3459
19.3942
19.988
24.8302
52.8311
233.4
19.2993
19.2906
19.2926
19.2942
19.2995
19.3123
19.3145
19.3465
19.7897
23.5957
48.0113
225.229
61.8593
34.7283
23.324
20.2123
19.4892
19.3263
19.2841
19.2715
19.2804
19.2792
19.2822
19.2773
30.2385
24.043
20.7608
19.6461
19.3542
19.2799
19.2631
19.2599
19.2652
19.2551
19.2517
19.2549
22.0824
20.6511
19.736
19.3733
19.2754
19.2609
19.2528
19.25
19.2496
19.2305
19.2296
19.241
19.9685
19.6308
19.3701
19.2582
19.2226
19.2262
19.2298
19.2213
19.2245
19.2128
19.213
19.2201
19.275
19.2832
19.2812
19.2751
19.2821
19.283
19.2847
19.3142
19.5224
21.2523
31.8717
89.9387
19.2577
19.2629
19.266
19.2592
19.2491
19.2561
19.2672
19.2836
19.3636
19.9782
23.3112
35.3649
19.2302
19.2243
19.2404
19.2427
19.2347
19.2344
19.2526
19.2502
19.2759
19.4658
20.3892
22.9871
19.2037
19.1931
19.2075
19.2162
19.2126
19.21
19.2278
19.2265
19.2322
19.2905
19.5282
20.1168
19.4005
19.3029
19.2324
19.2005
19.1891
19.1873
19.1864
19.1851
19.1858
19.1818
19.1808
19.3382
19.239
19.2001
19.1775
19.1685
19.1656
19.1632
19.1622
19.1624
19.1625
19.1611
19.3802
20.5378
19.1836
19.1592
19.1503
19.1469
19.1463
19.1443
19.1437
19.1436
19.1436
19.2482
20.5085
26.7801
19.1566
19.1358
19.132
19.1292
19.1289
19.1275
19.1272
19.1274
19.1479
19.584
24.4453
49.8305
19.3789
19.224
19.1861
19.1816
19.1815
19.1821
19.1873
19.1879
19.1906
19.2089
19.2765
19.414
20.6491
19.524
19.215
19.1662
19.1607
19.1607
19.1624
19.1633
19.1644
19.1713
19.189
19.224
27.3964
20.9282
19.3978
19.172
19.1447
19.1422
19.1434
19.1441
19.1442
19.1467
19.1517
19.1636
51.7352
24.6594
19.8388
19.2048
19.1338
19.1267
19.1276
19.1281
19.128
19.1293
19.13
19.1357
19.1387
19.1184
19.1158
19.1138
19.1139
19.1134
19.1125
19.114
19.1704
20.1947
32.0475
155.652
19.1231
19.1034
19.1006
19.0998
19.1002
19.1003
19.0991
19.1013
19.1693
20.3648
33.3501
148.749
19.1098
19.0905
19.0875
19.0872
19.0877
19.0879
19.0869
19.0893
19.1538
20.3068
32.7957
143.801
19.0975
19.0783
19.0756
19.0759
19.0764
19.076
19.0756
19.0775
19.1343
20.1827
31.8725
139.471
19.0861
19.0671
19.065
19.0654
19.0659
19.0652
19.0651
19.0665
19.1149
20.0525
30.9476
135.459
19.0752
19.0569
19.0551
19.0554
19.0559
19.0551
19.0552
19.0563
19.0974
19.933
30.0861
131.685
19.0656
19.0478
19.0459
19.0463
19.0469
19.0462
19.0463
19.047
19.0819
19.8267
29.3016
128.124
19.5599
19.615
19.621
19.6225
19.6227
19.6224
19.622
19.6219
19.6514
20.332
29.2273
124.762
22.4942
22.606
22.6194
22.6273
22.627
22.6281
22.6268
22.6239
22.6523
23.3103
31.5925
121.563
34.6107
34.9189
34.9612
34.9881
34.9809
34.9868
34.9734
34.9588
34.9689
35.4577
42.1554
118.461
72.372
72.6821
72.7107
72.8092
72.7718
72.7868
72.7319
72.6661
72.6424
72.7547
75.5047
110.756
248.993
248.374
248.351
248.285
248.273
248.261
248.224
248.204
248.208
248.184
247.548
240.909
155.671
31.6712
20.4358
19.2455
19.1239
19.1127
19.1123
19.1127
19.1124
19.113
19.1135
19.1177
148.87
32.9689
20.5951
19.2503
19.1121
19.0995
19.0986
19.0994
19.099
19.0994
19.099
19.1028
143.92
32.5164
20.5282
19.231
19.0992
19.087
19.0866
19.0874
19.087
19.0865
19.0862
19.0895
139.566
31.6885
20.3916
19.2034
19.0861
19.0759
19.0758
19.076
19.0755
19.0751
19.0746
19.0778
135.538
30.8268
20.2483
19.1756
19.0735
19.0654
19.0651
19.0648
19.0645
19.0637
19.0637
19.0669
131.75
30.0113
20.1136
19.1498
19.062
19.0556
19.055
19.0548
19.0544
19.0542
19.0539
19.057
128.184
29.2552
19.9928
19.1268
19.0513
19.0463
19.0454
19.0459
19.045
19.0457
19.0452
19.0475
124.817
29.1131
20.4753
19.6882
19.6213
19.6163
19.615
19.6156
19.6148
19.6152
19.6151
19.6182
121.627
31.4266
23.4151
22.6739
22.608
22.6028
22.5969
22.6
22.5943
22.6013
22.5997
22.5872
118.575
41.8563
35.4965
34.9239
34.8655
34.8516
34.8366
34.8402
34.8318
34.8482
34.8536
34.848
111.265
75.3058
72.6558
72.4055
72.36
72.3468
72.3097
72.3278
72.2957
72.3821
72.3923
72.3862
241.626
247.606
248.158
248.204
248.228
248.25
248.255
248.265
248.327
248.32
248.345
248.468
)
;

boundaryField
{
    rotor
    {
        Cmu             0.09;
        kappa           0.41;
        E               9.8;
        type            epsilonWallFunction;
        value           nonuniform List<scalar> 
48
(
493.513
288.592
293.096
294.156
294.424
294.482
294.517
294.522
294.531
294.532
294.549
294.545
294.552
294.544
294.55
294.54
294.552
294.526
294.515
294.512
294.498
294.454
289.186
489.913
493.513
448.544
405.817
370.2
340.344
315.216
293.751
275.251
259.045
244.828
232.243
224.497
489.913
447.125
405.126
369.702
340.259
315.177
293.898
275.825
259.86
245.588
233.4
225.229
)
;
    }
    stator
    {
        Cmu             0.09;
        kappa           0.41;
        E               9.8;
        type            epsilonWallFunction;
        value           nonuniform List<scalar> 
48
(
248.993
248.374
248.351
248.285
248.273
248.261
248.224
248.204
248.208
248.184
247.548
240.909
241.626
247.606
248.158
248.204
248.228
248.25
248.255
248.265
248.327
248.32
248.345
248.468
155.671
148.87
143.92
139.566
135.538
131.75
128.184
124.817
121.627
118.575
111.265
241.626
155.652
148.749
143.801
139.471
135.459
131.685
128.124
124.762
121.563
118.461
110.756
240.909
)
;
    }
    front
    {
        type            empty;
    }
    back
    {
        type            empty;
    }
    procBoundary1to0
    {
        type            processor;
        value           nonuniform List<scalar> 
20
(
61.9977
30.3513
22.1262
19.9734
19.4006
19.2382
19.1825
19.1566
19.1378
19.1225
19.1089
19.0964
19.0851
19.0749
19.0653
19.5592
22.4954
34.6066
72.3934
249.074
)
;
    }
    procBoundary1to3
    {
        type            processor;
        value           nonuniform List<scalar> 
20
(
89.0502
34.9629
22.9161
20.1029
19.4121
19.2244
19.1633
19.1362
19.1174
19.1033
19.0898
19.0784
19.067
19.0573
19.0478
19.6186
22.5874
34.843
72.3615
248.395
)
;
    }
}


// ************************************************************************* //
