/*--------------------------------*- C++ -*----------------------------------*\
  =========                 |
  \\      /  F ield         | OpenFOAM: The Open Source CFD Toolbox
   \\    /   O peration     | Website:  https://openfoam.org
    \\  /    A nd           | Version:  6
     \\/     M anipulation  |
\*---------------------------------------------------------------------------*/
FoamFile
{
    version     2.0;
    format      ascii;
    class       volScalarField;
    location    "1000";
    object      k;
}
// * * * * * * * * * * * * * * * * * * * * * * * * * * * * * * * * * * * * * //

dimensions      [0 2 -2 0 0 0 0];

internalField   nonuniform List<scalar> 
768
(
0.59472
0.723985
0.746096
0.75778
0.754275
0.760258
0.753818
0.759144
0.752578
0.76341
0.777536
0.78009
0.63388
0.854109
0.942126
0.965771
0.971932
0.974135
0.974381
0.974649
0.974138
0.974495
0.974749
0.97496
0.627293
0.881483
0.963858
0.982351
0.987179
0.988613
0.989015
0.989152
0.98913
0.989157
0.989154
0.989154
0.614897
0.886133
0.96781
0.984831
0.989139
0.990357
0.990688
0.990801
0.990811
0.990837
0.990844
0.990816
0.628346
0.891177
0.96952
0.985251
0.989124
0.990158
0.99039
0.990444
0.990439
0.990458
0.990475
0.990534
0.63769
0.896874
0.971153
0.98534
0.988727
0.989551
0.989756
0.989761
0.989775
0.989816
0.989846
0.989808
0.650702
0.904739
0.972958
0.985495
0.988276
0.988965
0.989106
0.989149
0.989092
0.989127
0.989071
0.989046
0.665167
0.913927
0.975243
0.985655
0.987886
0.988441
0.988459
0.988401
0.98841
0.98844
0.988454
0.988345
0.682504
0.924024
0.977697
0.985931
0.987502
0.98786
0.987805
0.98772
0.98781
0.987799
0.987708
0.987723
0.679105
0.927589
0.979595
0.986137
0.987173
0.987338
0.987238
0.987102
0.987149
0.98714
0.987045
0.987063
0.689412
0.931245
0.981496
0.986329
0.986877
0.986858
0.98661
0.98646
0.986545
0.986434
0.986374
0.986377
0.799743
0.958663
0.98477
0.986524
0.986561
0.986298
0.985899
0.98572
0.985771
0.985784
0.985787
0.985874
0.775995
0.77815
0.774654
0.776938
0.779871
0.795169
0.793759
0.789959
0.771973
0.74149
0.696221
0.590314
0.974626
0.974819
0.97472
0.975187
0.975721
0.976808
0.977232
0.977201
0.974536
0.95448
0.854358
0.632853
0.989072
0.989079
0.989057
0.989062
0.989101
0.989227
0.989316
0.989222
0.987872
0.976169
0.89912
0.628239
0.990773
0.990784
0.990765
0.990784
0.990811
0.990828
0.990859
0.990788
0.989713
0.980305
0.911103
0.62982
0.990548
0.990515
0.990474
0.990518
0.990551
0.990539
0.990548
0.990521
0.989671
0.981472
0.916136
0.639405
0.989855
0.989863
0.989815
0.989815
0.989841
0.989811
0.989842
0.98986
0.989194
0.982154
0.920806
0.636078
0.989106
0.989137
0.989044
0.989067
0.989044
0.98906
0.989072
0.98916
0.988806
0.983262
0.926798
0.647707
0.988312
0.988284
0.988268
0.988334
0.988397
0.988476
0.988548
0.988621
0.98844
0.984606
0.93619
0.667462
0.987714
0.987658
0.9877
0.987688
0.987715
0.987884
0.987886
0.987965
0.988258
0.985897
0.943346
0.689985
0.986991
0.986964
0.987034
0.987093
0.987177
0.987291
0.987384
0.987616
0.988093
0.987371
0.95212
0.70901
0.986293
0.986296
0.986445
0.98642
0.986458
0.986629
0.986837
0.987156
0.987914
0.988715
0.964697
0.731299
0.98577
0.985658
0.985801
0.985842
0.985858
0.986109
0.986228
0.986499
0.987433
0.99067
0.997037
0.77559
0.971125
0.9919
0.988188
0.986555
0.985968
0.985808
0.985474
0.985145
0.985243
0.985326
0.985405
0.985285
0.996809
0.990841
0.987348
0.986051
0.985518
0.985215
0.984938
0.984663
0.984767
0.984839
0.984888
0.984745
0.99117
0.988002
0.986043
0.985336
0.985136
0.984733
0.98431
0.984348
0.984424
0.984311
0.984446
0.984461
0.987154
0.985675
0.985052
0.984709
0.984407
0.984302
0.984038
0.984006
0.984201
0.983978
0.983932
0.984097
0.985221
0.985387
0.985439
0.985306
0.985321
0.985615
0.985744
0.985975
0.986888
0.990092
1.00171
0.944724
0.984713
0.984846
0.984977
0.985077
0.984894
0.985007
0.985231
0.98537
0.985919
0.987947
0.99301
0.996829
0.984385
0.984494
0.984552
0.984541
0.984454
0.984522
0.98485
0.984838
0.985157
0.986091
0.988222
0.991056
0.983965
0.983788
0.983903
0.984024
0.983991
0.984051
0.984376
0.984456
0.984548
0.985072
0.985726
0.986846
0.985067
0.984308
0.983938
0.983738
0.983626
0.983564
0.983456
0.983436
0.983462
0.983411
0.983362
0.983096
0.984009
0.98348
0.983271
0.983169
0.983128
0.983079
0.983034
0.983018
0.983014
0.982979
0.982577
0.980592
0.983379
0.98292
0.982795
0.982738
0.982726
0.98269
0.982671
0.982663
0.982662
0.982462
0.980236
0.96971
0.982922
0.982484
0.982395
0.982376
0.982366
0.982344
0.982344
0.982337
0.982308
0.981518
0.973503
0.923844
0.983024
0.983226
0.983333
0.983382
0.98341
0.983494
0.983594
0.983625
0.983697
0.9839
0.984233
0.984691
0.980266
0.982185
0.98283
0.982967
0.982988
0.983049
0.983078
0.98312
0.983141
0.983234
0.983362
0.983571
0.968517
0.979031
0.982016
0.982547
0.982618
0.982666
0.982677
0.982716
0.982723
0.98274
0.9828
0.982925
0.919432
0.970746
0.980599
0.982087
0.982277
0.982321
0.982335
0.982371
0.982367
0.982373
0.98238
0.982471
0.982569
0.982143
0.982079
0.982065
0.982058
0.982042
0.982045
0.982037
0.981938
0.980196
0.95945
0.763402
0.982247
0.981845
0.9818
0.98178
0.981778
0.981768
0.981767
0.98176
0.981625
0.979429
0.952447
0.702755
0.981979
0.981578
0.981532
0.981525
0.981521
0.981514
0.981514
0.981508
0.981364
0.979121
0.951706
0.699753
0.981725
0.981335
0.981286
0.981285
0.981283
0.981274
0.981278
0.981274
0.981145
0.979039
0.952831
0.704202
0.981496
0.98111
0.981067
0.98107
0.981068
0.98106
0.981061
0.981057
0.980941
0.97902
0.954364
0.707867
0.981271
0.980898
0.980857
0.98086
0.980866
0.980857
0.98086
0.980856
0.980758
0.979024
0.955901
0.712637
0.981011
0.980631
0.980584
0.980593
0.980598
0.980591
0.980592
0.980585
0.980504
0.97893
0.957254
0.717169
0.979866
0.979386
0.979319
0.979326
0.979331
0.979327
0.979327
0.97932
0.979253
0.977788
0.957212
0.722035
0.973404
0.972593
0.972421
0.972455
0.97243
0.972434
0.972442
0.972413
0.972378
0.970803
0.949852
0.723874
0.944056
0.942131
0.941787
0.941764
0.941732
0.941744
0.941735
0.941725
0.94171
0.940011
0.916693
0.707637
0.82682
0.822343
0.82164
0.821385
0.821132
0.82097
0.820847
0.820747
0.820803
0.819445
0.797278
0.644916
0.52374
0.523324
0.522672
0.521811
0.520844
0.519867
0.518866
0.517831
0.517253
0.516964
0.511804
0.472011
0.762726
0.956872
0.978887
0.981637
0.981962
0.982008
0.982022
0.982056
0.982043
0.982028
0.982049
0.982119
0.706376
0.949818
0.977908
0.98129
0.981685
0.981741
0.981759
0.981781
0.981759
0.981747
0.981747
0.981819
0.70233
0.948803
0.977597
0.981035
0.981433
0.981489
0.981512
0.98152
0.981507
0.981485
0.981489
0.981556
0.704443
0.949754
0.977583
0.980838
0.981207
0.981258
0.981282
0.981288
0.981269
0.981261
0.981252
0.981315
0.708868
0.951267
0.977673
0.980671
0.980998
0.981039
0.981059
0.981064
0.981049
0.981027
0.981029
0.981092
0.713351
0.952843
0.977782
0.980518
0.980809
0.980842
0.980854
0.980865
0.980845
0.980833
0.980826
0.980888
0.718148
0.954292
0.977801
0.980289
0.980544
0.980576
0.980574
0.980594
0.980569
0.980577
0.980564
0.980611
0.722977
0.954429
0.976749
0.979061
0.979292
0.979329
0.979322
0.979343
0.979317
0.979335
0.979317
0.979354
0.72578
0.947541
0.969828
0.972194
0.972411
0.972495
0.972435
0.972537
0.972414
0.972552
0.97247
0.972514
0.710205
0.915452
0.939126
0.941577
0.941837
0.941945
0.941931
0.942006
0.941911
0.942069
0.941999
0.942
0.647507
0.79773
0.818921
0.820981
0.821274
0.821562
0.821622
0.821688
0.821791
0.821955
0.82173
0.821606
0.473648
0.512411
0.517061
0.51738
0.517593
0.517966
0.518521
0.518988
0.520543
0.520826
0.520245
0.520603
)
;

boundaryField
{
    rotor
    {
        type            kqRWallFunction;
        value           nonuniform List<scalar> 
48
(
0.59472
0.723985
0.746096
0.75778
0.754275
0.760258
0.753818
0.759144
0.752578
0.76341
0.777536
0.78009
0.775995
0.77815
0.774654
0.776938
0.779871
0.795169
0.793759
0.789959
0.771973
0.74149
0.696221
0.590314
0.59472
0.63388
0.627293
0.614897
0.628346
0.63769
0.650702
0.665167
0.682504
0.679105
0.689412
0.799743
0.590314
0.632853
0.628239
0.62982
0.639405
0.636078
0.647707
0.667462
0.689985
0.70901
0.731299
0.77559
)
;
    }
    stator
    {
        type            kqRWallFunction;
        value           nonuniform List<scalar> 
48
(
0.52374
0.523324
0.522672
0.521811
0.520844
0.519867
0.518866
0.517831
0.517253
0.516964
0.511804
0.472011
0.473648
0.512411
0.517061
0.51738
0.517593
0.517966
0.518521
0.518988
0.520543
0.520826
0.520245
0.520603
0.762726
0.706376
0.70233
0.704443
0.708868
0.713351
0.718148
0.722977
0.72578
0.710205
0.647507
0.473648
0.763402
0.702755
0.699753
0.704202
0.707867
0.712637
0.717169
0.722035
0.723874
0.707637
0.644916
0.472011
)
;
    }
    front
    {
        type            empty;
    }
    back
    {
        type            empty;
    }
    procBoundary1to0
    {
        type            processor;
        value           nonuniform List<scalar> 
20
(
0.973091
0.997726
0.991348
0.987294
0.985093
0.984004
0.983366
0.98292
0.982554
0.982233
0.981948
0.981695
0.981467
0.981259
0.980998
0.979857
0.973432
0.944086
0.826803
0.52339
)
;
    }
    procBoundary1to3
    {
        type            processor;
        value           nonuniform List<scalar> 
20
(
0.943343
0.996363
0.990763
0.986857
0.984686
0.983595
0.982944
0.982505
0.982138
0.981846
0.98157
0.981337
0.981104
0.980906
0.980623
0.979368
0.972529
0.941978
0.821557
0.520559
)
;
    }
}


// ************************************************************************* //
