/*--------------------------------*- C++ -*----------------------------------*\
  =========                 |
  \\      /  F ield         | OpenFOAM: The Open Source CFD Toolbox
   \\    /   O peration     | Website:  https://openfoam.org
    \\  /    A nd           | Version:  6
     \\/     M anipulation  |
\*---------------------------------------------------------------------------*/
FoamFile
{
    version     2.0;
    format      ascii;
    class       volScalarField;
    location    "1000";
    object      p;
}
// * * * * * * * * * * * * * * * * * * * * * * * * * * * * * * * * * * * * * //

dimensions      [0 2 -2 0 0 0 0];

internalField   nonuniform List<scalar> 
768
(
0.403756
0.906111
1.58734
2.29709
3.03235
3.76892
4.50366
5.22658
5.94369
6.65003
7.35312
8.04887
0.265584
0.842719
1.53573
2.26233
3.02167
3.77927
4.52352
5.25008
5.9641
6.66587
7.36085
8.04927
0.126015
0.749476
1.45579
2.19531
2.98408
3.77357
4.53885
5.27603
5.99053
6.68709
7.37174
8.0484
0.0620072
0.727406
1.45305
2.21093
3.02049
3.82625
4.59954
5.33649
6.04316
6.7264
7.39357
8.05073
0.0867789
0.796602
1.54596
2.32595
3.14822
3.95435
4.71905
5.44084
6.12757
6.78717
7.42841
8.05818
0.202035
0.956523
1.72914
2.52767
3.35128
4.14455
4.88644
5.58135
6.23749
6.86552
7.47361
8.07038
0.409667
1.20875
2.00187
2.80874
3.62116
4.38596
5.09334
5.74974
6.36757
6.9566
7.52681
8.08562
0.717983
1.56074
2.36597
3.16777
3.9498
4.67141
5.33059
5.93968
6.51136
7.05676
7.58482
8.10299
1.13892
2.02209
2.82621
3.60007
4.32988
4.99051
5.58988
6.14312
6.6636
7.16175
7.64563
8.12155
1.71029
2.62047
3.38983
4.10031
4.75006
5.33203
5.86087
6.35224
6.81828
7.26767
7.70684
8.14061
2.49899
3.39219
4.05976
4.65614
5.195
5.68232
6.13298
6.55935
6.97004
7.37097
7.76652
8.15946
3.72045
4.37942
4.82631
5.24344
5.6433
6.02582
6.39562
6.75731
7.11407
7.46859
7.82275
8.17731
8.7455
9.43998
10.14
10.8425
11.555
12.2738
13.0047
13.7422
14.48
15.1943
15.8709
16.3707
8.73673
9.42381
10.1159
10.8134
11.522
12.2429
12.9821
13.7403
14.5075
15.2425
15.9331
16.5069
8.7225
9.39754
10.0787
10.7697
11.4766
12.2049
12.9623
13.7529
14.5571
15.3118
16.02
16.6414
8.70425
9.35956
10.0229
10.6997
11.3975
12.1237
12.8877
13.6942
14.5229
15.3014
16.034
16.6987
8.684
9.31202
9.94931
10.6025
11.2799
11.9904
12.7443
13.5491
14.3898
15.1937
15.953
16.6624
8.66267
9.25782
9.86242
10.4841
11.1312
11.814
12.5436
13.332
14.1702
14.9915
15.7715
16.5263
8.6407
9.19817
9.76524
10.3484
10.9572
11.6008
12.2939
13.0488
13.8665
14.6916
15.4895
16.2845
8.6177
9.13475
9.65998
10.2
10.7625
11.3584
12.0005
12.7059
13.4847
14.2949
15.0951
15.9286
8.59471
9.06961
9.55093
10.0439
10.5554
11.0947
11.6753
12.3149
13.0285
13.7963
14.5793
15.4379
8.5724
9.00517
9.44193
9.88635
10.3437
10.8214
11.3308
11.888
12.5131
13.1982
13.9165
14.7732
8.55139
8.94334
9.33647
9.73278
10.1354
10.5491
10.9816
11.4443
11.9519
12.5089
13.0927
13.848
8.53194
8.88547
9.23723
9.58747
9.93708
10.2881
10.6427
11.0044
11.3768
11.7514
12.0961
12.5424
6.17166
5.5789
5.62129
5.81386
6.06696
6.34665
6.63968
6.94059
7.24706
7.55843
7.87437
8.19386
7.32056
6.48177
6.27519
6.30297
6.43912
6.63228
6.85846
7.10531
7.36653
7.63885
7.92025
8.20839
7.77323
7.05457
6.76281
6.69598
6.75117
6.87794
7.04929
7.25003
7.47162
7.70924
7.95999
8.22085
7.97854
7.41101
7.115
7.00263
7.00617
7.08448
7.21244
7.37478
7.56216
7.76931
7.99287
8.23002
8.51452
8.83276
9.14625
9.45366
9.75416
10.0466
10.3285
10.594
10.8283
10.9937
10.9661
10.3155
8.49929
8.78597
9.06477
9.33342
9.58979
9.83044
10.0494
10.2347
10.3629
10.3823
10.1749
9.43945
8.48684
8.74578
8.99352
9.22768
9.44535
9.64187
9.80938
9.93365
9.98889
9.92919
9.66584
9.02998
8.47788
8.71273
8.93278
9.13651
9.32074
9.48043
9.6071
9.68682
9.69633
9.59767
9.33294
8.81512
8.08469
7.6398
7.36865
7.23955
7.2123
7.25637
7.35075
7.48145
7.63955
7.81984
8.01897
8.23595
8.14433
7.79163
7.5532
7.42278
7.37829
7.39855
7.46703
7.57167
7.70457
7.8609
8.03763
8.23435
8.1818
7.89675
7.68965
7.56489
7.51143
7.51524
7.56368
7.64685
7.75783
7.89238
8.04599
8.22046
8.20714
7.97213
7.79229
7.67587
7.61836
7.61072
7.64355
7.70878
7.80032
7.91388
8.04106
8.17948
8.47422
8.68778
8.88298
9.05988
9.21544
9.34466
9.43951
9.48737
9.4687
9.35568
9.1102
8.69391
8.47919
8.67185
8.84386
8.99686
9.12774
9.23178
9.30185
9.32706
9.29197
9.17583
8.95657
8.61962
8.4968
8.66598
8.81454
8.94571
9.05508
9.13826
9.18899
9.19822
9.15388
9.04169
8.84817
8.57203
8.53815
8.67292
8.79483
8.90505
8.99531
9.06099
9.09645
9.09434
9.04536
8.93946
8.77001
8.54047
8.22491
8.0276
7.8706
7.76315
7.70442
7.68881
7.7094
7.75955
7.83374
7.92662
8.02368
8.09634
8.23804
8.06944
7.93127
7.83243
7.77404
7.75281
7.76367
7.80111
7.85996
7.93396
8.00713
8.05273
8.24773
8.10149
7.9788
7.88774
7.83052
7.80532
7.80843
7.83525
7.8809
7.93901
7.99454
8.02565
8.25531
8.12651
8.01649
7.93231
7.87662
7.84859
7.84546
7.86339
7.89782
7.9427
7.98514
8.00702
8.26101
8.14619
8.04661
7.96834
7.91435
7.88424
7.87614
7.88668
7.91179
7.94583
7.97792
7.99399
8.26569
8.16191
8.07089
7.99773
7.94536
7.91382
7.90162
7.90609
7.92332
7.9485
7.97258
7.98434
8.26935
8.17442
8.09061
8.02165
7.97088
7.93826
7.92277
7.92228
7.93295
7.95099
7.96853
7.97747
8.27237
8.18452
8.10662
8.04121
7.9919
7.95848
7.94034
7.93573
7.94099
7.95314
7.96558
7.9723
8.27493
8.19211
8.11918
8.05633
8.00832
7.97441
7.95402
7.94655
7.9472
7.95515
7.96329
7.96873
8.27617
8.19753
8.12719
8.06654
8.01922
7.98492
7.96338
7.95346
7.95166
7.95619
7.96189
7.96605
8.27683
8.20054
8.13157
8.07215
8.02512
7.99067
7.96843
7.95724
7.95408
7.95679
7.96111
7.96445
8.27701
8.20174
8.13322
8.07429
8.02731
7.9928
7.97035
7.95866
7.9551
7.95712
7.96103
7.96405
8.62008
8.69048
8.78341
8.87328
8.94649
8.99741
9.02081
9.01057
8.95963
8.86136
8.71218
8.51845
8.66237
8.70677
8.77672
8.8484
8.90662
8.94502
8.95874
8.9426
8.89132
8.80026
8.66868
8.50276
8.68872
8.71874
8.77218
8.82864
8.87401
8.90197
8.90788
8.88746
8.83663
8.75254
8.63516
8.4911
8.70676
8.72786
8.76886
8.81273
8.84723
8.86639
8.86599
8.84234
8.79245
8.71427
8.60907
8.48236
8.71956
8.73481
8.76622
8.7998
8.82522
8.83707
8.83154
8.80546
8.75663
8.68376
8.5883
8.47555
8.729
8.7402
8.7641
8.78921
8.80707
8.81275
8.80307
8.77499
8.72734
8.65868
8.57162
8.47021
8.736
8.74439
8.76238
8.78055
8.79216
8.79265
8.77967
8.74983
8.70343
8.63811
8.5579
8.46587
8.74132
8.74779
8.76106
8.77352
8.7799
8.7761
8.76033
8.72914
8.68368
8.62109
8.54656
8.46231
8.74534
8.7506
8.76023
8.76807
8.77058
8.76299
8.74565
8.71253
8.66876
8.6071
8.5376
8.45951
8.74831
8.75277
8.75968
8.76459
8.76403
8.75465
8.73512
8.70216
8.65777
8.59845
8.53129
8.45746
8.75017
8.7539
8.75923
8.76246
8.76035
8.74989
8.72935
8.69636
8.65173
8.59376
8.52798
8.45615
8.75073
8.75411
8.75888
8.76155
8.75892
8.74815
8.72722
8.69433
8.64949
8.59234
8.527
8.45561
)
;

boundaryField
{
    rotor
    {
        type            zeroGradient;
    }
    stator
    {
        type            zeroGradient;
    }
    front
    {
        type            empty;
    }
    back
    {
        type            empty;
    }
    procBoundary1to0
    {
        type            processor;
        value           nonuniform List<scalar> 
20
(
6.12369
7.30825
7.78513
8.00843
8.12855
8.19914
8.24557
8.27815
8.30213
8.32037
8.33459
8.34588
8.35495
8.36234
8.36839
8.37332
8.37717
8.37961
8.38068
8.38095
)
;
    }
    procBoundary1to3
    {
        type            processor;
        value           nonuniform List<scalar> 
20
(
10.2956
9.41472
8.9951
8.76919
8.63838
8.55575
8.50145
8.46394
8.43718
8.41716
8.40207
8.39011
8.38082
8.37317
8.36712
8.3621
8.35818
8.35569
8.35421
8.35364
)
;
    }
}


// ************************************************************************* //
