/*--------------------------------*- C++ -*----------------------------------*\
  =========                 |
  \\      /  F ield         | OpenFOAM: The Open Source CFD Toolbox
   \\    /   O peration     | Website:  https://openfoam.org
    \\  /    A nd           | Version:  6
     \\/     M anipulation  |
\*---------------------------------------------------------------------------*/
FoamFile
{
    version     2.0;
    format      ascii;
    class       surfaceScalarField;
    location    "1000";
    object      phi;
}
// * * * * * * * * * * * * * * * * * * * * * * * * * * * * * * * * * * * * * //

dimensions      [0 3 -1 0 0 0 0];

internalField   nonuniform List<scalar> 
1468
(
-4.95732e-06
4.9686e-06
-7.32655e-06
1.87973e-06
-8.39384e-06
1.18805e-06
-9.76193e-06
9.25907e-07
-1.02914e-05
6.52325e-07
-1.11345e-05
3.83124e-07
-1.12529e-05
2.27551e-07
-1.18136e-05
1.09825e-07
-1.17644e-05
6.54487e-08
-1.21508e-05
2.13681e-08
-1.1935e-05
2.25637e-08
1.48121e-09
-1.21687e-05
-1.91553e-06
6.77616e-06
-1.89992e-06
1.7781e-06
-1.44156e-06
7.19292e-07
-1.00266e-06
4.39403e-07
-6.44765e-07
2.85566e-07
-4.62313e-07
1.55245e-07
-3.09686e-07
6.19988e-08
-2.49928e-07
7.32816e-10
-1.65851e-07
-2.45149e-08
-1.42964e-07
-3.11551e-08
-8.75562e-08
-1.84836e-08
-1.88277e-09
-9.35068e-08
4.3415e-07
6.23232e-06
1.00918e-06
1.15331e-06
1.48994e-06
2.30148e-07
1.88889e-06
2.6056e-08
2.2182e-06
-4.93419e-08
2.45596e-06
-9.58934e-08
2.63684e-06
-1.24531e-07
2.75825e-06
-1.3411e-07
2.85426e-06
-1.23035e-07
2.91281e-06
-9.65533e-08
2.95701e-06
-5.7806e-08
-1.32933e-08
2.96878e-06
1.25016e-06
4.82409e-06
2.03069e-06
3.2001e-07
2.52068e-06
-2.70582e-07
2.88971e-06
-3.55351e-07
3.20152e-06
-3.66216e-07
3.45165e-06
-3.56333e-07
3.65497e-06
-3.32565e-07
3.80587e-06
-2.94039e-07
3.92249e-06
-2.41611e-07
3.99913e-06
-1.77981e-07
4.05023e-06
-1.06534e-07
-3.05253e-08
4.06794e-06
1.63497e-06
2.90576e-06
2.5645e-06
-6.9005e-07
3.1207e-06
-8.48963e-07
3.52625e-06
-7.8136e-07
3.86605e-06
-7.14697e-07
4.14404e-06
-6.5022e-07
4.3741e-06
-5.68688e-07
4.54869e-06
-4.81243e-07
4.68365e-06
-3.79067e-07
4.7731e-06
-2.75743e-07
4.83152e-06
-1.63714e-07
-5.4824e-08
4.85137e-06
1.90946e-06
6.38487e-07
3.02629e-06
-1.91135e-06
3.6709e-06
-1.55927e-06
4.15213e-06
-1.28552e-06
4.52991e-06
-1.13074e-06
4.84997e-06
-9.83456e-07
5.09601e-06
-8.42331e-07
5.29475e-06
-6.86479e-07
5.43344e-06
-5.36927e-07
5.53618e-06
-3.79328e-07
5.59092e-06
-2.31138e-07
-7.72986e-08
5.61765e-06
2.11805e-06
-2.1935e-06
3.47649e-06
-3.459e-06
4.28445e-06
-2.42234e-06
4.83718e-06
-1.89975e-06
5.28054e-06
-1.602e-06
5.61819e-06
-1.3634e-06
5.89033e-06
-1.1302e-06
6.08495e-06
-9.10064e-07
6.23496e-06
-6.93151e-07
6.32731e-06
-4.91003e-07
6.38928e-06
-2.92502e-07
-1.04603e-07
6.40603e-06
2.24036e-06
-4.63825e-06
3.99058e-06
-5.29336e-06
4.9773e-06
-3.461e-06
5.63428e-06
-2.59374e-06
6.11664e-06
-2.11858e-06
6.47677e-06
-1.74866e-06
6.74293e-06
-1.41992e-06
6.93652e-06
-1.11912e-06
7.07207e-06
-8.43818e-07
7.16098e-06
-5.89819e-07
7.21202e-06
-3.52477e-07
-1.26069e-07
7.23029e-06
2.30117e-06
-7.2397e-06
4.58662e-06
-7.63651e-06
5.80647e-06
-4.70663e-06
6.5532e-06
-3.36374e-06
7.05833e-06
-2.64375e-06
7.40932e-06
-2.11825e-06
7.65548e-06
-1.68064e-06
7.82661e-06
-1.30298e-06
7.94244e-06
-9.70653e-07
8.01597e-06
-6.73637e-07
8.05672e-06
-4.01481e-07
-1.45861e-07
8.07078e-06
2.88519e-06
-9.97155e-06
5.51e-06
-1.0231e-05
6.85536e-06
-6.05003e-06
7.62768e-06
-4.13804e-06
8.10282e-06
-3.12574e-06
8.40842e-06
-2.43e-06
8.6091e-06
-1.88828e-06
8.7427e-06
-1.44273e-06
8.82884e-06
-1.06493e-06
8.88178e-06
-7.34004e-07
8.90885e-06
-4.37078e-07
-1.59824e-07
8.9185e-06
4.75958e-06
-1.4566e-05
7.04768e-06
-1.24457e-05
8.23889e-06
-7.21551e-06
8.88218e-06
-4.77115e-06
9.24168e-06
-3.48174e-06
9.45366e-06
-2.64175e-06
9.585e-06
-2.02077e-06
9.66771e-06
-1.52885e-06
9.71842e-06
-1.12042e-06
9.74606e-06
-7.68985e-07
9.75873e-06
-4.56584e-07
-1.67818e-07
9.76275e-06
9.26323e-06
-2.3728e-05
9.75299e-06
-1.28495e-05
1.00846e-05
-7.50303e-06
1.03108e-05
-4.97478e-06
1.04408e-05
-3.59834e-06
1.05156e-05
-2.709e-06
1.05605e-05
-2.06175e-06
1.05867e-05
-1.55428e-06
1.05989e-05
-1.1355e-06
1.06006e-05
-7.76979e-07
1.05979e-05
-4.59861e-07
1.0596e-05
-1.69968e-07
-1.18683e-05
9.68888e-09
-1.19582e-05
-8.85382e-09
-1.15508e-05
-8.56616e-09
-1.15258e-05
-4.2014e-08
-1.10541e-05
-7.19968e-08
-1.08751e-05
-1.59923e-07
-1.02676e-05
-2.95673e-07
-9.58806e-06
-5.46527e-07
-8.52686e-06
-8.40092e-07
-7.19977e-06
-1.13412e-06
-5.04244e-06
-1.86119e-06
-4.95909e-06
-7.28598e-08
2.15867e-08
-1.08452e-07
3.95565e-08
-1.193e-07
5.4851e-08
-1.88163e-07
5.39055e-08
-2.44563e-07
3.75089e-08
-3.65338e-07
-1.05839e-08
-5.22342e-07
-9.37248e-08
-8.14063e-07
-2.15446e-07
-1.25896e-06
-3.52214e-07
-1.70338e-06
-6.31505e-07
-1.73474e-06
-1.68848e-06
-6.65649e-06
2.96819e-06
3.46195e-08
2.93782e-06
7.99592e-08
2.89279e-06
1.19893e-07
2.81306e-06
1.49273e-07
2.70777e-06
1.641e-07
2.55522e-06
1.59564e-07
2.34555e-06
1.32494e-07
2.05706e-06
9.12098e-08
1.68582e-06
3.5242e-08
1.24118e-06
-1.55203e-07
6.71874e-07
-1.06695e-06
-5.98615e-06
4.06305e-06
4.66391e-08
4.02617e-06
1.22325e-07
3.96614e-06
1.93856e-07
3.86745e-06
2.57385e-07
3.7361e-06
3.11272e-07
3.55457e-06
3.50473e-07
3.32533e-06
3.74427e-07
3.04046e-06
3.84565e-07
2.70361e-06
3.83607e-07
2.24743e-06
3.04172e-07
1.4419e-06
-2.65129e-07
-4.44735e-06
4.84422e-06
5.88338e-08
4.80104e-06
1.66996e-07
4.72836e-06
2.76704e-07
4.6144e-06
3.79453e-07
4.45936e-06
4.79672e-07
4.25222e-06
5.6886e-07
3.99015e-06
6.48575e-07
3.66974e-06
7.11788e-07
3.28823e-06
7.75701e-07
2.75923e-06
8.49954e-07
1.87565e-06
7.81448e-07
-2.46927e-06
5.60278e-06
6.80584e-08
5.56123e-06
2.19892e-07
5.47791e-06
3.65959e-07
5.35886e-06
5.19411e-07
5.18605e-06
6.67978e-07
4.9614e-06
8.22826e-07
4.66136e-06
9.64802e-07
4.29726e-06
1.1098e-06
3.85239e-06
1.26893e-06
3.25726e-06
1.53411e-06
2.16671e-06
1.98084e-06
7.04496e-10
6.39884e-06
8.48136e-08
6.34993e-06
2.70744e-07
6.27466e-06
4.65772e-07
6.14838e-06
6.63399e-07
5.98071e-06
8.77483e-07
5.73634e-06
1.09492e-06
5.42496e-06
1.33095e-06
5.01839e-06
1.56884e-06
4.49195e-06
1.83404e-06
3.75161e-06
2.33107e-06
2.55706e-06
3.48475e-06
2.59075e-06
7.21937e-06
9.58691e-08
7.1797e-06
3.20639e-07
7.10684e-06
5.53529e-07
6.99703e-06
8.03357e-07
6.83161e-06
1.07173e-06
6.60361e-06
1.36967e-06
6.28112e-06
1.69103e-06
5.8364e-06
2.04578e-06
5.24774e-06
2.48731e-06
4.37437e-06
3.26338e-06
2.7236e-06
5.13277e-06
5.53176e-06
8.06232e-06
1.04506e-07
8.03026e-06
3.58463e-07
7.9731e-06
6.26526e-07
7.88047e-06
9.17295e-07
7.7421e-06
1.24057e-06
7.53447e-06
1.60644e-06
7.23261e-06
2.02695e-06
6.8004e-06
2.51966e-06
6.14901e-06
3.13064e-06
5.14611e-06
4.2835e-06
3.29129e-06
7.14574e-06
8.68107e-06
8.91285e-06
1.09634e-07
8.89254e-06
3.84934e-07
8.85434e-06
6.78451e-07
8.78893e-06
1.00061e-06
8.68631e-06
1.36657e-06
8.52408e-06
1.78997e-06
8.27529e-06
2.29613e-06
7.87909e-06
2.92002e-06
7.27204e-06
3.77573e-06
6.25047e-06
5.29914e-06
4.1364e-06
9.14253e-06
1.28652e-05
9.76131e-06
1.11617e-07
9.75433e-06
3.98746e-07
9.73734e-06
7.07068e-07
9.70482e-06
1.04912e-06
9.64587e-06
1.44059e-06
9.54676e-06
1.90165e-06
9.38349e-06
2.4701e-06
9.11136e-06
3.20497e-06
8.61854e-06
4.23928e-06
7.76734e-06
6.14531e-06
6.09521e-06
1.08187e-05
1.87507e-05
1.05995e-05
1.09345e-07
1.06062e-05
3.98871e-07
1.06114e-05
7.11875e-07
1.06119e-05
1.06139e-06
1.06005e-05
1.46e-06
1.05757e-05
1.93327e-06
1.05268e-05
2.51695e-06
1.04344e-05
3.28723e-06
1.02684e-05
4.41765e-06
9.96484e-06
6.40051e-06
9.34613e-06
1.1313e-05
2.81296e-05
1.69942e-05
-8.79183e-06
1.32799e-05
-9.06599e-06
1.21529e-05
-6.33282e-06
1.17735e-05
-4.56967e-06
1.16241e-05
-3.433e-06
1.15532e-05
-2.6284e-06
1.1513e-05
-2.01601e-06
1.14853e-05
-1.52454e-06
1.14613e-05
-1.11394e-06
1.14387e-05
-7.59945e-07
1.14204e-05
-4.47028e-07
-1.64013e-07
1.14128e-05
1.81225e-05
-3.87003e-06
1.4955e-05
-5.84065e-06
1.36155e-05
-4.94984e-06
1.30089e-05
-3.9332e-06
1.27019e-05
-3.10671e-06
1.25306e-05
-2.44439e-06
1.24257e-05
-1.90313e-06
1.23545e-05
-1.45008e-06
1.23003e-05
-1.06161e-06
1.22565e-05
-7.21147e-07
1.22234e-05
-4.19932e-07
-1.5192e-07
1.22083e-05
1.77154e-05
-1.97383e-06
1.57649e-05
-3.84382e-06
1.46459e-05
-3.79379e-06
1.40237e-05
-3.2849e-06
1.36606e-05
-2.72645e-06
1.34375e-05
-2.20986e-06
1.32925e-05
-1.75096e-06
1.31911e-05
-1.34603e-06
1.31142e-05
-9.86218e-07
1.30523e-05
-6.64982e-07
1.30052e-05
-3.76499e-07
-1.23243e-07
1.29802e-05
1.74634e-05
-1.14005e-06
1.62853e-05
-2.62854e-06
1.54332e-05
-2.90765e-06
1.48781e-05
-2.70481e-06
1.45177e-05
-2.34827e-06
1.42786e-05
-1.95871e-06
1.41145e-05
-1.57938e-06
1.39957e-05
-1.22403e-06
1.3903e-05
-8.95973e-07
1.38276e-05
-5.94723e-07
1.37674e-05
-3.17453e-07
1.3721e-05
-8.25322e-08
1.14218e-05
1.0281e-07
1.14418e-05
3.85305e-07
1.14682e-05
6.95106e-07
1.1498e-05
1.04001e-06
1.15321e-05
1.43106e-06
1.15758e-05
1.88866e-06
1.16444e-05
2.44323e-06
1.17768e-05
3.15017e-06
1.20583e-05
4.10145e-06
1.28632e-05
5.58404e-06
1.58925e-05
8.26209e-06
1.16279e-05
1.22245e-05
8.88964e-08
1.22578e-05
3.5787e-07
1.23023e-05
6.58536e-07
1.23567e-05
9.90711e-07
1.24264e-05
1.36292e-06
1.25224e-05
1.78647e-06
1.26732e-05
2.28177e-06
1.2932e-05
2.87283e-06
1.34293e-05
3.59822e-06
1.44766e-05
4.49008e-06
1.71137e-05
5.58099e-06
5.51555e-06
1.30071e-05
6.3152e-08
1.30536e-05
3.16246e-07
1.31124e-05
6.05195e-07
1.31854e-05
9.21137e-07
1.3279e-05
1.26784e-06
1.34079e-05
1.65029e-06
1.3601e-05
2.07703e-06
1.39116e-05
2.54886e-06
1.44307e-05
3.05267e-06
1.5358e-05
3.55295e-06
1.70798e-05
3.83854e-06
2.88865e-06
1.37707e-05
1.60661e-08
1.38307e-05
2.59986e-07
1.39008e-05
5.38734e-07
1.39865e-05
8.37185e-07
1.40944e-05
1.15567e-06
1.42398e-05
1.49578e-06
1.44468e-05
1.85407e-06
1.47577e-05
2.22002e-06
1.52374e-05
2.5605e-06
1.59755e-05
2.78371e-06
1.7106e-05
2.6942e-06
1.64354e-06
1.97968e-06
-7.10684e-07
1.24142e-06
-1.86254e-06
6.10359e-07
-2.25071e-06
1.48124e-07
-2.22313e-06
-1.78062e-07
-2.00823e-06
-4.08427e-07
-1.71919e-06
-5.74392e-07
-1.40779e-06
-6.99413e-07
-1.09693e-06
-8.00282e-07
-7.97552e-07
-8.84587e-07
-5.1366e-07
-9.61983e-07
-2.43287e-07
1.60562e-08
-1.04541e-06
1.52852e-06
-4.74879e-07
1.05295e-06
-1.36374e-06
5.87097e-07
-1.76266e-06
2.09962e-07
-1.8277e-06
-7.67395e-08
-1.70822e-06
-2.90756e-07
-1.49597e-06
-4.51749e-07
-1.241e-06
-5.7777e-07
-9.69438e-07
-6.83262e-07
-6.94615e-07
-7.78125e-07
-4.23292e-07
-8.83039e-07
-1.30351e-07
1.94588e-07
-1.07581e-06
1.20815e-06
-3.37619e-07
8.90368e-07
-1.03004e-06
5.4385e-07
-1.4002e-06
2.38958e-07
-1.50978e-06
-7.87362e-09
-1.45211e-06
-2.01166e-07
-1.29649e-06
-3.52116e-07
-1.08653e-06
-4.74035e-07
-8.47068e-07
-5.80726e-07
-5.89773e-07
-6.87709e-07
-3.16666e-07
-8.59887e-07
3.63649e-08
6.7091e-07
-1.30585e-06
9.75086e-07
-2.47416e-07
7.54827e-07
-7.96194e-07
4.93857e-07
-1.12477e-06
2.47946e-07
-1.25175e-06
3.81451e-08
-1.23295e-06
-1.32955e-07
-1.11887e-06
-2.70618e-07
-9.454e-07
-3.8381e-07
-7.33164e-07
-4.85566e-07
-4.91091e-07
-5.96708e-07
-2.1016e-07
-7.87893e-07
2.41509e-07
-1.96731e-06
1.82746e-06
-9.50452e-07
-8.61845e-08
-8.73012e-07
1.81877e-07
-7.92988e-07
4.60206e-07
-6.98822e-07
7.42671e-07
-5.82508e-07
1.03506e-06
-4.30927e-07
1.33511e-06
-2.23565e-07
1.63367e-06
7.00989e-08
1.9126e-06
4.85518e-07
2.12777e-06
1.06506e-06
2.20075e-06
1.80911e-06
1.94179e-06
1.00375e-06
-8.71265e-07
-2.85425e-07
-7.64487e-07
7.42306e-08
-6.75196e-07
3.71674e-07
-5.77229e-07
6.43201e-07
-4.60186e-07
9.12985e-07
-3.12813e-07
1.17682e-06
-1.18422e-07
1.42473e-06
1.42673e-07
1.6348e-06
4.92442e-07
1.76647e-06
9.36193e-07
1.74039e-06
1.44035e-06
1.43677e-06
6.57026e-07
-8.40622e-07
-7.68911e-07
-6.73853e-07
-9.57415e-08
-5.73195e-07
2.69696e-07
-4.74725e-07
5.42532e-07
-3.62152e-07
7.95534e-07
-2.24024e-07
1.02998e-06
-4.785e-08
1.23732e-06
1.79276e-07
1.39576e-06
4.66643e-07
1.46882e-06
8.09931e-07
1.39783e-06
1.15913e-06
1.08712e-06
4.50763e-07
-7.62205e-07
-1.9579e-06
-5.78241e-07
-2.78954e-07
-4.78226e-07
1.69442e-07
-3.85607e-07
4.48184e-07
-2.81719e-07
6.86092e-07
-1.55788e-07
8.94997e-07
3.97888e-10
1.06809e-06
1.94969e-07
1.18812e-06
4.30991e-07
1.22372e-06
6.95087e-07
1.12587e-06
9.44952e-07
8.42139e-07
3.24768e-07
8.01292e-07
-1.91663e-07
6.43926e-07
-6.29885e-07
4.4447e-07
-9.15468e-07
2.45776e-07
-1.04499e-06
6.86177e-08
-1.04976e-06
-8.08829e-08
-9.65886e-07
-2.03601e-07
-8.20994e-07
-3.04639e-07
-6.32653e-07
-3.90926e-07
-4.0705e-07
-4.65897e-07
-1.34152e-07
-5.34838e-07
3.03008e-07
1.33174e-06
6.70061e-07
-1.47254e-07
5.53942e-07
-5.05064e-07
3.99081e-07
-7.51731e-07
2.37876e-07
-8.7558e-07
8.86451e-08
-8.94381e-07
-4.07036e-08
-8.32261e-07
-1.48459e-07
-7.11304e-07
-2.36123e-07
-5.45775e-07
-3.04746e-07
-3.41298e-07
-3.48063e-07
-9.64291e-08
-3.07187e-07
2.70851e-07
9.84798e-07
5.68462e-07
-1.20698e-07
4.80839e-07
-4.12177e-07
3.58993e-07
-6.24096e-07
2.27285e-07
-7.38915e-07
1.01687e-07
-7.65219e-07
-9.76323e-09
-7.19199e-07
-1.03549e-07
-6.17233e-07
-1.78663e-07
-4.72017e-07
-2.33187e-07
-2.89076e-07
-2.57057e-07
-7.30919e-08
-2.14069e-07
2.17379e-07
7.95253e-07
4.89651e-07
-9.39802e-08
4.21408e-07
-3.38721e-07
3.2421e-07
-5.21024e-07
2.15825e-07
-6.25259e-07
1.09947e-07
-6.55106e-07
1.42446e-08
-6.20601e-07
-6.70502e-08
-5.35207e-07
-1.31155e-07
-4.08982e-07
-1.75132e-07
-2.48737e-07
-1.90407e-07
-6.31429e-08
-1.47903e-07
1.7592e-07
6.01517e-07
4.26592e-07
-8.14264e-08
3.72806e-07
-2.8208e-07
2.94379e-07
-4.39418e-07
2.04433e-07
-5.32597e-07
1.15031e-07
-5.63528e-07
3.26657e-08
-5.38077e-07
-3.76486e-08
-4.65303e-07
-9.26514e-08
-3.55921e-07
-1.29055e-07
-2.14768e-07
-1.38903e-07
-5.45289e-08
-1.07917e-07
1.34174e-07
5.03373e-07
3.76991e-07
-6.62748e-08
3.32762e-07
-2.34531e-07
2.68997e-07
-3.72965e-07
1.93579e-07
-4.53389e-07
1.17847e-07
-4.85351e-07
4.69723e-08
-4.65126e-07
-1.4011e-08
-4.03939e-07
-6.12685e-08
-3.10193e-07
-9.21865e-08
-1.86642e-07
-1.00471e-07
-5.17557e-08
-7.48896e-08
1.06276e-07
3.80102e-07
3.37828e-07
-5.80256e-08
2.99889e-07
-1.99335e-07
2.48562e-07
-3.18408e-07
1.83709e-07
-3.89959e-07
1.19787e-07
-4.20229e-07
5.8019e-08
-4.04862e-07
4.86103e-09
-3.52836e-07
-3.58915e-08
-2.7128e-07
-6.33625e-08
-1.63556e-07
-7.00362e-08
-4.65147e-08
-5.57552e-08
8.04634e-08
3.21357e-07
3.12858e-07
-5.54489e-08
2.78961e-07
-1.63784e-07
2.36358e-07
-2.77286e-07
1.78771e-07
-3.30759e-07
1.23408e-07
-3.64805e-07
6.80019e-08
-3.4922e-07
2.05853e-08
-3.05779e-07
-1.57083e-08
-2.3739e-07
-4.08347e-08
-1.4085e-07
-4.78258e-08
-4.46786e-08
-3.99591e-08
6.75325e-08
2.38467e-07
3.23064e-07
-2.99908e-08
2.85211e-07
-1.52775e-07
2.49655e-07
-2.22076e-07
1.89863e-07
-2.91073e-07
1.38443e-07
-3.0594e-07
8.25823e-08
-3.02061e-07
3.54077e-08
-2.64512e-07
5.6541e-10
-2.01022e-07
-2.65926e-08
-1.2731e-07
-3.26405e-08
-3.2964e-08
-3.44971e-08
5.14103e-08
2.05878e-07
4.08669e-07
-1.49677e-08
3.68221e-07
-1.24012e-07
3.22591e-07
-1.75092e-07
2.52519e-07
-2.36441e-07
1.88324e-07
-2.45048e-07
1.19967e-07
-2.46001e-07
6.17252e-08
-2.16066e-07
1.71514e-08
-1.65186e-07
-1.60932e-08
-1.09325e-07
-2.66804e-08
-2.98501e-08
-3.05451e-08
3.69371e-08
1.35143e-07
6.77103e-07
3.59367e-08
6.17497e-07
-8.89011e-08
5.44077e-07
-1.04618e-07
4.35586e-07
-1.68842e-07
3.31821e-07
-1.58925e-07
2.22192e-07
-1.72926e-07
1.26998e-07
-1.54923e-07
5.23945e-08
-1.23262e-07
-3.34368e-09
-1.02175e-07
-2.46691e-08
-4.2061e-08
-3.32186e-08
-1.72279e-08
2.61555e-08
1.18949e-06
1.1008e-06
9.86564e-07
8.14121e-07
6.47012e-07
4.66268e-07
3.04422e-07
1.69807e-07
6.05347e-08
5.16172e-09
-2.61555e-08
-4.99506e-07
-1.4719e-06
-4.48786e-07
-3.3121e-07
-3.84232e-07
1.03432e-07
-3.07283e-07
3.68965e-07
-2.15233e-07
5.89757e-07
-1.03142e-07
7.76169e-07
3.36536e-08
9.22358e-07
1.9909e-07
1.01431e-06
3.91698e-07
1.02514e-06
5.98718e-07
9.22372e-07
7.81157e-07
6.63443e-07
2.40519e-07
-2.89747e-07
-1.15088e-06
-3.34315e-07
-2.83269e-07
-3.0021e-07
7.01792e-08
-2.39701e-07
3.07028e-07
-1.60187e-07
5.06442e-07
-6.19947e-08
6.7039e-07
5.67837e-08
7.94263e-07
1.9659e-07
8.64418e-07
3.54883e-07
8.61494e-07
5.17047e-07
7.57219e-07
6.54638e-07
5.33362e-07
1.8436e-07
-2.0335e-07
-9.46319e-07
-2.49815e-07
-2.35309e-07
-2.30983e-07
5.09467e-08
-1.83195e-07
2.58075e-07
-1.15286e-07
4.35606e-07
-2.97497e-08
5.80414e-07
7.2657e-08
6.85603e-07
1.91041e-07
7.41037e-07
3.20832e-07
7.28599e-07
4.50635e-07
6.32982e-07
5.55713e-07
4.34044e-07
1.43779e-07
-1.45665e-07
-7.64821e-07
-1.8689e-07
-1.8922e-07
-1.75305e-07
4.11118e-08
-1.36677e-07
2.19132e-07
-7.85406e-08
3.7472e-07
-4.45019e-09
5.01245e-07
8.38459e-08
5.90633e-07
1.83778e-07
6.34654e-07
2.91498e-07
6.18524e-07
3.95011e-07
5.29729e-07
4.77536e-07
3.60119e-07
1.15631e-07
-1.0662e-07
-6.47626e-07
-1.39497e-07
-1.53381e-07
-1.31128e-07
3.32423e-08
-9.89174e-08
1.86921e-07
-4.88055e-08
3.23105e-07
1.53907e-08
4.34761e-07
9.16064e-08
5.10551e-07
1.76295e-07
5.48009e-07
2.65775e-07
5.28338e-07
3.49908e-07
4.53133e-07
4.14865e-07
3.02239e-07
9.47144e-08
-7.8766e-08
-5.36907e-07
-1.0337e-07
-1.23841e-07
-9.5801e-08
2.78077e-08
-6.82467e-08
1.59598e-07
-2.45234e-08
2.77794e-07
3.09035e-08
3.76161e-07
9.73324e-08
4.39808e-07
1.68663e-07
4.73547e-07
2.44602e-07
4.52235e-07
3.11833e-07
3.89358e-07
3.64112e-07
2.59125e-07
7.97915e-08
-6.01964e-08
-4.6082e-07
-7.57008e-08
-1.04519e-07
-6.77222e-08
2.15706e-08
-4.35151e-08
1.36182e-07
-4.6753e-09
2.40141e-07
4.3096e-08
3.26365e-07
1.02141e-07
3.82122e-07
1.61814e-07
4.10888e-07
2.27814e-07
3.92325e-07
2.81252e-07
3.3887e-07
3.23164e-07
2.25631e-07
6.98726e-08
-4.87699e-08
-3.83991e-07
-5.47583e-08
-9.33427e-08
-4.55175e-08
1.45743e-08
-2.32892e-08
1.15769e-07
1.2198e-08
2.03615e-07
5.47582e-08
2.84094e-07
1.08581e-07
3.24688e-07
1.60232e-07
3.60859e-07
2.19222e-07
3.3272e-07
2.62351e-07
3.02928e-07
2.96392e-07
1.96542e-07
6.09739e-08
-4.53345e-08
-3.24481e-07
-4.20976e-08
-9.10531e-08
-3.07386e-08
7.18024e-09
-8.92595e-09
9.30298e-08
2.85854e-08
1.77921e-07
6.80429e-08
2.32674e-07
1.26102e-07
2.90108e-07
1.71206e-07
2.92739e-07
2.35195e-07
3.03991e-07
2.68871e-07
2.43291e-07
3.0085e-07
1.75335e-07
5.57263e-08
-4.87154e-08
-2.46115e-07
-4.08629e-08
-8.42196e-08
-2.69194e-08
1.14036e-09
1.47856e-09
7.48404e-08
4.58601e-08
1.41561e-07
9.76155e-08
1.85592e-07
1.65222e-07
2.32777e-07
2.2497e-07
2.32132e-07
2.98249e-07
2.48997e-07
3.40204e-07
1.90328e-07
3.73517e-07
1.35328e-07
5.30234e-08
-6.16765e-08
-1.26032e-07
-6.02244e-08
-4.37405e-08
-4.06239e-08
1.25837e-08
4.68755e-09
5.98132e-08
7.44577e-08
1.00419e-07
1.58017e-07
1.16519e-07
2.63228e-07
1.58764e-07
3.60812e-07
1.38166e-07
4.74076e-07
1.84227e-07
5.38527e-07
9.21683e-08
5.88652e-07
7.16354e-08
6.32759e-08
-1.1528e-07
-1.51951e-07
-1.32676e-07
-6.59981e-08
3.70792e-08
1.61497e-07
3.1984e-07
4.70317e-07
6.46932e-07
7.35112e-07
8.15488e-07
)
;

boundaryField
{
    rotor
    {
        type            calculated;
        value           uniform 0;
    }
    stator
    {
        type            calculated;
        value           uniform 0;
    }
    front
    {
        type            empty;
        value           nonuniform 0();
    }
    back
    {
        type            empty;
        value           nonuniform 0();
    }
    procBoundary1to0
    {
        type            processor;
        value           nonuniform List<scalar> 
20
(
3.2349e-05
2.3258e-05
1.9703e-05
1.8366e-05
2.45396e-06
1.79949e-06
1.37336e-06
1.08231e-06
8.74271e-07
7.21116e-07
6.05022e-07
5.15333e-07
4.44566e-07
3.87852e-07
3.42561e-07
3.12419e-07
3.15592e-07
3.91326e-07
6.17909e-07
8.88489e-07
)
;
    }
    procBoundary1to3
    {
        type            processor;
        value           nonuniform List<scalar> 
20
(
-3.18619e-05
-2.30337e-05
-1.95811e-05
-1.82863e-05
-2.39775e-06
-1.75711e-06
-1.34236e-06
-1.05817e-06
-8.57513e-07
-7.08486e-07
-5.97606e-07
-5.10401e-07
-4.43681e-07
-3.88693e-07
-3.46205e-07
-3.17608e-07
-3.21686e-07
-4.08834e-07
-6.7401e-07
-1.14889e-06
)
;
    }
}


// ************************************************************************* //
