/*--------------------------------*- C++ -*----------------------------------*\
  =========                 |
  \\      /  F ield         | OpenFOAM: The Open Source CFD Toolbox
   \\    /   O peration     | Website:  https://openfoam.org
    \\  /    A nd           | Version:  6
     \\/     M anipulation  |
\*---------------------------------------------------------------------------*/
FoamFile
{
    version     2.0;
    format      ascii;
    class       volScalarField;
    location    "1500";
    object      epsilon;
}
// * * * * * * * * * * * * * * * * * * * * * * * * * * * * * * * * * * * * * //

dimensions      [0 2 -3 0 0 0 0];

internalField   nonuniform List<scalar> 
768
(
342.779
201.426
204.017
207.831
205.619
211.15
217.322
216.168
204.65
209.751
219.107
223.675
248.15
103.296
77.6787
66.7639
62.0309
60.2452
59.5183
59.022
58.387
58.5307
58.8657
59.0708
220.383
87.8414
50.2392
35.2737
29.766
27.8568
27.2177
27.003
26.9043
26.8978
26.9311
26.9665
204.343
81.8664
43.0333
28.3302
23.2508
21.5899
21.0756
20.9227
20.8742
20.8674
20.873
20.8827
191.543
77.4178
39.9488
26.1675
21.6162
20.1845
19.7696
19.6496
19.6236
19.6117
19.6147
19.6119
185.785
74.2705
37.9308
25.1035
21.0092
19.7907
19.4352
19.3515
19.3226
19.3237
19.3135
19.3225
178.094
71.7029
36.3552
24.3344
20.6707
19.6055
19.3179
19.2375
19.2206
19.2122
19.2127
19.211
174.093
68.9786
35.0118
23.7416
20.4174
19.4868
19.2402
19.1758
19.1631
19.1611
19.1565
19.1545
168.965
66.9457
33.9915
23.2962
20.2273
19.3952
19.1796
19.1262
19.1122
19.1097
19.1081
19.1087
158.939
65.8505
33.4643
22.9849
20.0797
19.3169
19.1221
19.0733
19.0644
19.0614
19.0567
19.06
152.384
67.8683
33.1116
22.6861
19.9365
19.2429
19.0724
19.0353
19.0261
19.0251
19.0169
19.0115
180.732
68.298
31.2485
22.0101
19.7195
19.1558
19.0174
18.986
18.9792
18.984
18.9834
18.9769
214.193
208.606
215.848
216.954
218.263
225.08
224.392
222.821
214.793
201.909
184.29
264.818
58.7126
58.5717
58.8434
59.0289
59.1547
59.4952
59.6102
60.6372
65.5778
80.0787
117.806
262.429
26.9591
26.9654
26.9893
27.0073
27.0195
27.069
27.247
28.3794
33.2419
48.241
88.0658
232.571
20.8857
20.891
20.8956
20.9013
20.905
20.9211
21.0442
21.9255
25.9061
39.2052
76.2734
206.342
19.6168
19.614
19.6187
19.6175
19.6233
19.6293
19.724
20.4
23.7187
35.5836
70.4138
196.887
19.3145
19.3208
19.313
19.319
19.3115
19.3254
19.3867
19.9236
22.7077
33.2808
65.9348
184.657
19.214
19.2142
19.2163
19.2119
19.2106
19.212
19.2697
19.684
22.0313
31.443
61.2635
176.233
19.1553
19.156
19.1553
19.154
19.1506
19.1545
19.1968
19.5328
21.5034
29.9534
59.3037
171.435
19.1026
19.0999
19.0994
19.0984
19.107
19.1116
19.147
19.4123
21.0773
28.6924
56.0132
169.635
19.0575
19.0545
19.053
19.0517
19.0577
19.0672
19.1035
19.3216
20.7117
27.4556
53.9991
162.516
19.0161
19.0138
19.0121
19.0139
19.0249
19.0364
19.0649
19.2422
20.3859
26.3215
51.2733
164.181
18.9769
18.9713
18.9708
18.9795
18.9898
19.0006
19.0232
19.1609
20.0251
24.8781
49.4155
173.87
65.5164
39.221
25.4268
20.738
19.4072
19.055
18.9608
18.9497
18.9512
18.9483
18.9427
18.9431
34.3746
26.5023
21.7177
19.7669
19.1442
18.961
18.9096
18.9069
18.9076
18.9122
18.9158
18.9053
23.7491
21.5731
19.9629
19.2366
18.9746
18.8898
18.8787
18.876
18.8725
18.8736
18.8829
18.8754
20.3588
19.7598
19.2373
18.9793
18.8747
18.8356
18.8355
18.8376
18.8423
18.8464
18.8621
18.8966
18.9432
18.9381
18.9352
18.9449
18.9481
18.9553
18.9767
19.0655
19.559
22.2999
35.3282
88.2617
18.9051
18.9081
18.9049
18.9128
18.9225
18.9249
18.9342
18.9857
19.2173
20.3803
25.255
39.7099
18.8637
18.8684
18.8721
18.8722
18.8834
18.8957
18.8994
18.9204
19.0233
19.4551
21.0421
24.7663
18.8948
18.8531
18.8383
18.8317
18.8325
18.851
18.8611
18.8716
18.9108
19.0647
19.5497
20.5506
19.296
19.101
18.935
18.851
18.8138
18.7979
18.7953
18.7967
18.7988
18.809
18.9042
19.279
18.9476
18.8719
18.816
18.7858
18.7724
18.7652
18.7637
18.7643
18.7703
18.8373
19.4059
21.1673
18.8215
18.7808
18.7571
18.7465
18.7413
18.7377
18.7371
18.7383
18.7626
19.0678
21.1706
27.2635
18.766
18.7345
18.7226
18.7179
18.7155
18.7132
18.7131
18.7176
18.7926
19.6207
25.095
45.1492
19.3331
18.9718
18.8311
18.8008
18.7985
18.8037
18.8085
18.8178
18.8373
18.8942
19.049
19.324
21.2942
19.568
18.9265
18.7921
18.7715
18.7712
18.7735
18.7787
18.7886
18.8089
18.858
18.9352
27.492
21.3395
19.2288
18.8143
18.751
18.7442
18.7446
18.7473
18.7526
18.7605
18.7762
18.8006
45.7347
25.0911
19.7914
18.8683
18.7367
18.7215
18.7206
18.722
18.7246
18.7273
18.7323
18.7431
18.7328
18.7051
18.6967
18.6945
18.6933
18.6918
18.6922
18.7012
18.8399
20.2914
31.4265
114.411
18.7082
18.682
18.6759
18.6742
18.6735
18.6726
18.6729
18.6837
18.8458
20.4913
32.4475
97.7474
18.6877
18.6627
18.6575
18.6561
18.6557
18.6552
18.6551
18.6657
18.8224
20.4264
32.0289
93.8032
18.6694
18.6452
18.6416
18.64
18.6394
18.6389
18.6388
18.6479
18.7881
20.2683
31.2592
91.6075
18.6531
18.6298
18.6265
18.6256
18.6245
18.624
18.6239
18.6316
18.753
20.0938
30.4526
89.644
18.6589
18.6407
18.6387
18.6381
18.6376
18.6371
18.637
18.6429
18.7469
19.9572
29.7169
87.9304
18.836
18.8341
18.8348
18.8344
18.8352
18.8344
18.8348
18.8388
18.9293
20.0295
29.2188
86.2541
19.9201
19.9815
19.9929
19.9936
19.9973
19.9958
19.996
19.997
20.0772
21.0909
29.6615
84.6988
23.784
23.8852
23.9089
23.9053
23.9215
23.9119
23.9176
23.9076
23.9807
24.8932
32.4679
82.7522
32.9984
33.0106
33.0109
33.006
33.0209
33.0026
33.0097
32.9821
33.0311
33.6488
38.9075
77.7597
53.4307
53.3979
53.2797
53.2168
53.229
53.1441
53.1885
53.0795
53.1072
53.2433
54.6007
65.7932
121.982
121.691
121.465
121.264
120.761
120.486
120.48
120.086
119.901
119.792
118.003
104.531
114.446
30.9644
20.4386
18.925
18.7232
18.7
18.6981
18.6992
18.7009
18.7014
18.7029
18.7092
98.2895
32.0713
20.6404
18.9342
18.7068
18.6807
18.6781
18.679
18.6795
18.6791
18.6792
18.6852
94.3406
31.7696
20.5815
18.908
18.687
18.6618
18.6593
18.6601
18.6602
18.6594
18.6598
18.6645
91.8655
31.0953
20.4256
18.8673
18.6671
18.6446
18.6425
18.6429
18.6428
18.6418
18.6415
18.6471
89.9039
30.3606
20.2491
18.8241
18.6473
18.6283
18.6266
18.6272
18.6274
18.6262
18.6265
18.6306
88.0626
29.6669
20.1058
18.8095
18.6555
18.6395
18.6379
18.6384
18.6381
18.6375
18.6373
18.6425
86.3883
29.1822
20.1642
18.9827
18.847
18.8337
18.832
18.8326
18.8321
18.8321
18.8329
18.8344
84.7856
29.5711
21.1928
20.1139
19.9914
19.9787
19.9755
19.9758
19.9745
19.9755
19.977
19.9771
82.9153
32.3451
24.9418
23.9838
23.8698
23.8598
23.8497
23.8523
23.8483
23.8533
23.8573
23.8494
78.1376
38.8905
33.6524
32.9942
32.9112
32.9086
32.8881
32.8917
32.9026
32.9246
32.9144
32.9171
66.3146
54.517
53.2073
53.0709
53.0413
53.0945
53.0535
53.0889
53.1406
53.2473
53.1893
53.207
104.892
118.02
119.643
119.819
119.953
120.119
120.575
120.718
121.112
121.679
121.323
120.993
)
;

boundaryField
{
    rotor
    {
        Cmu             0.09;
        kappa           0.41;
        E               9.8;
        type            epsilonWallFunction;
        value           nonuniform List<scalar> 
48
(
342.779
201.426
204.017
207.831
205.619
211.15
217.322
216.168
204.65
209.751
219.107
223.675
214.193
208.606
215.848
216.954
218.263
225.08
224.392
222.821
214.793
201.909
184.29
264.818
342.779
248.15
220.383
204.343
191.543
185.785
178.094
174.093
168.965
158.939
152.384
180.732
264.818
262.429
232.571
206.342
196.887
184.657
176.233
171.435
169.635
162.516
164.181
173.87
)
;
    }
    stator
    {
        Cmu             0.09;
        kappa           0.41;
        E               9.8;
        type            epsilonWallFunction;
        value           nonuniform List<scalar> 
48
(
121.982
121.691
121.465
121.264
120.761
120.486
120.48
120.086
119.901
119.792
118.003
104.531
104.892
118.02
119.643
119.819
119.953
120.119
120.575
120.718
121.112
121.679
121.323
120.993
114.446
98.2895
94.3406
91.8655
89.9039
88.0626
86.3883
84.7856
82.9153
78.1376
66.3146
104.892
114.411
97.7474
93.8032
91.6075
89.644
87.9304
86.2541
84.6988
82.7522
77.7597
65.7932
104.531
)
;
    }
    front
    {
        type            empty;
    }
    back
    {
        type            empty;
    }
    procBoundary0to1
    {
        type            processor;
        value           nonuniform List<scalar> 
20
(
88.8603
40.1202
24.8969
20.5882
19.3327
18.935
18.7982
18.7398
18.7067
18.6826
18.6623
18.6447
18.6287
18.64
18.8324
19.9755
23.8486
32.9071
53.1441
121.009
)
;
    }
    procBoundary0to2
    {
        type            processor;
        value           nonuniform List<scalar> 
20
(
65.3517
34.1139
23.6358
20.3219
19.2856
18.9466
18.8235
18.7683
18.7355
18.7107
18.6904
18.6719
18.6561
18.6609
18.8382
19.9209
23.7835
33.0149
53.5196
122.105
)
;
    }
}


// ************************************************************************* //
