/*--------------------------------*- C++ -*----------------------------------*\
  =========                 |
  \\      /  F ield         | OpenFOAM: The Open Source CFD Toolbox
   \\    /   O peration     | Website:  https://openfoam.org
    \\  /    A nd           | Version:  6
     \\/     M anipulation  |
\*---------------------------------------------------------------------------*/
FoamFile
{
    version     2.0;
    format      ascii;
    class       volScalarField;
    location    "1500";
    object      nut;
}
// * * * * * * * * * * * * * * * * * * * * * * * * * * * * * * * * * * * * * //

dimensions      [0 2 -1 0 0 0 0];

internalField   nonuniform List<scalar> 
768
(
9.93673e-05
0.00016329
0.000173938
0.000184403
0.000177866
0.000183065
0.000176107
0.000179936
0.000177141
0.00017548
0.000179382
0.000180269
7.63229e-05
0.000528832
0.00094704
0.00120231
0.00132551
0.00138259
0.00140504
0.00142002
0.00142966
0.00142687
0.0014206
0.00141852
8.52146e-05
0.000691897
0.00158715
0.00240767
0.00290384
0.00312179
0.00320111
0.00322886
0.00323987
0.003241
0.0032369
0.00323294
9.45064e-05
0.000765138
0.00188526
0.00302338
0.00373914
0.00404617
0.00415091
0.00418353
0.00419364
0.00419532
0.00419386
0.00419201
0.000102635
0.000824446
0.00204818
0.00328154
0.00402554
0.00432681
0.00442387
0.00445147
0.00445905
0.00446073
0.00446107
0.00446079
0.00011488
0.000884332
0.00217522
0.00342908
0.00413907
0.00440969
0.00449211
0.00451448
0.00451912
0.00452063
0.00452108
0.00452043
0.000120787
0.000936647
0.00229042
0.00354341
0.00420689
0.0044444
0.00451368
0.00453175
0.0045352
0.00453618
0.00453584
0.00453481
0.00013534
0.00100374
0.00240561
0.0036408
0.00425666
0.00446539
0.00452356
0.00453808
0.00453951
0.00453914
0.00453878
0.00453742
0.000140936
0.00106564
0.00250734
0.00372156
0.00429564
0.00448045
0.00452975
0.00454093
0.0045427
0.00454258
0.0045411
0.00453893
0.000152653
0.00110053
0.00258063
0.00378346
0.00432683
0.00449366
0.00453585
0.00454527
0.0045461
0.00454539
0.0045452
0.00454418
0.000171471
0.00108447
0.00263209
0.00384328
0.00435683
0.00450458
0.00453873
0.00454405
0.00454422
0.0045431
0.00454456
0.00454701
0.000256859
0.00119351
0.00281946
0.00396485
0.00439969
0.00451715
0.0045433
0.00454636
0.00454683
0.00454473
0.00454388
0.00454623
0.000177535
0.000181134
0.00016801
0.000172496
0.000178756
0.00018219
0.000173847
0.000168696
0.000163296
0.000152874
0.00013174
5.45479e-05
0.00142365
0.00142666
0.00141912
0.00141919
0.00141991
0.00141716
0.00141348
0.00138282
0.00124614
0.000920414
0.000417739
7.19829e-05
0.00323266
0.00323193
0.00322892
0.00322798
0.00322749
0.00322324
0.00320187
0.00306924
0.00259425
0.001696
0.00071149
8.80338e-05
0.00419067
0.00418987
0.00418895
0.00418816
0.00418768
0.00418495
0.00416024
0.00398919
0.00335327
0.00212908
0.000865381
0.000100899
0.00446041
0.0044599
0.00445933
0.00445871
0.00445873
0.00445706
0.00443715
0.00428613
0.00366775
0.0023631
0.000959104
0.000109327
0.0045202
0.00452019
0.00452001
0.00452003
0.00452022
0.00451901
0.00450398
0.00438271
0.00382883
0.00253989
0.00105171
0.000115272
0.00453417
0.00453309
0.0045332
0.00453347
0.00453399
0.00453381
0.00452316
0.00442747
0.00394605
0.0027065
0.00115007
0.00012821
0.00453661
0.00453655
0.0045362
0.00453614
0.00453718
0.00453812
0.00453064
0.00445595
0.00404501
0.00286024
0.00124151
0.00013844
0.00454022
0.00454016
0.00453946
0.00453981
0.00453879
0.00453967
0.00453512
0.00447796
0.00412979
0.00301545
0.00134162
0.000158361
0.00454417
0.00454399
0.00454379
0.00454455
0.0045438
0.00454293
0.0045389
0.00449492
0.00420692
0.00317475
0.00146113
0.00017813
0.00454512
0.0045454
0.00454726
0.00454694
0.0045441
0.00454282
0.00454075
0.00450776
0.00427534
0.00334583
0.00161088
0.000199094
0.00454732
0.00454902
0.00454979
0.00454673
0.00454417
0.00454396
0.00454298
0.00452064
0.00435218
0.0035732
0.00188074
0.000243674
0.00129841
0.00231509
0.00348915
0.00420275
0.00446046
0.00453127
0.00454827
0.00454742
0.00454564
0.00454659
0.00454769
0.0045474
0.00268384
0.00339493
0.00404632
0.00438921
0.00450986
0.00454334
0.00455151
0.00454986
0.00455002
0.00454948
0.00454788
0.00455023
0.00377581
0.00408591
0.00435582
0.00449016
0.0045379
0.00455018
0.00455091
0.00455077
0.00455168
0.00455079
0.00454836
0.00455235
0.00430062
0.00439721
0.00448807
0.00453371
0.00455028
0.0045542
0.00455372
0.00455324
0.00455119
0.00455038
0.00454648
0.00453883
0.00454836
0.00454997
0.00455114
0.00454879
0.00454777
0.00454708
0.00454596
0.00453379
0.00444426
0.00397469
0.00267049
0.00089218
0.00455068
0.00455019
0.00455075
0.00455008
0.00454866
0.00454807
0.00454885
0.00454298
0.00450516
0.00429692
0.00359053
0.00236782
0.00455443
0.00455254
0.00455183
0.00455316
0.00455166
0.00454923
0.00455196
0.00455095
0.00453493
0.00445971
0.00418466
0.00363239
0.00454002
0.00455143
0.00455561
0.00455642
0.00455621
0.00455331
0.00455387
0.00455443
0.00454888
0.00452324
0.00443762
0.0042574
0.00448151
0.00451063
0.00453703
0.00455037
0.00455504
0.0045562
0.00455609
0.00455577
0.0045553
0.00455255
0.00452657
0.00442908
0.00453672
0.00454516
0.00455259
0.00455628
0.00455739
0.00455781
0.00455778
0.00455766
0.00455617
0.004538
0.00439049
0.00398256
0.00455278
0.00455569
0.00455781
0.00455881
0.00455899
0.00455918
0.00455916
0.0045589
0.00455243
0.00447174
0.00397737
0.00295672
0.00455763
0.00455926
0.00456002
0.00456021
0.00456019
0.00456035
0.00456033
0.00455927
0.00453918
0.00432664
0.00326255
0.00152232
0.00441569
0.00450917
0.00454721
0.00455576
0.0045571
0.00455688
0.00455694
0.0045563
0.00455458
0.00454688
0.00452067
0.00447088
0.00395413
0.00434761
0.00451418
0.00455124
0.00455759
0.00455827
0.00455847
0.00455837
0.00455776
0.00455569
0.00454831
0.00453543
0.00292353
0.00393195
0.00442741
0.00453901
0.00455697
0.00455927
0.00455967
0.00455985
0.00455954
0.00455904
0.00455701
0.00455364
0.00149208
0.00324288
0.00427723
0.00451851
0.00455545
0.00456007
0.00456064
0.00456086
0.00456069
0.00456062
0.00456004
0.004559
0.00455961
0.00456089
0.00456128
0.00456132
0.00456127
0.0045614
0.00456136
0.00455908
0.00452179
0.00416067
0.00247851
0.000329714
0.00456075
0.00456197
0.00456231
0.00456234
0.0045622
0.00456229
0.00456228
0.00455947
0.00451559
0.00410613
0.00233178
0.000274802
0.00456169
0.00456289
0.00456311
0.00456322
0.00456311
0.00456314
0.00456319
0.00456046
0.00451767
0.00411428
0.00234927
0.000275652
0.00456258
0.0045637
0.00456378
0.00456391
0.00456395
0.00456401
0.00456403
0.00456164
0.00452315
0.00414613
0.00241542
0.000285284
0.00456336
0.00456443
0.00456452
0.00456462
0.00456469
0.00456478
0.00456473
0.00456274
0.0045292
0.00418347
0.00249421
0.000297041
0.0045583
0.00455806
0.00455793
0.00455786
0.00455792
0.00455801
0.00455797
0.0045564
0.00452759
0.00421301
0.00257126
0.000309558
0.0045063
0.00450151
0.00450057
0.00450032
0.00450025
0.00450029
0.00450031
0.00449914
0.00447463
0.00419198
0.00262432
0.000322782
0.00422496
0.00420465
0.00420098
0.00420028
0.00419975
0.00419981
0.00420006
0.00419962
0.00418028
0.00394548
0.00256739
0.000333199
0.00342372
0.00339833
0.00339295
0.00339171
0.00339052
0.00339075
0.00339121
0.00339183
0.00337997
0.00322552
0.00225242
0.000332658
0.00220614
0.00219211
0.00218858
0.00218701
0.00218578
0.00218659
0.00218707
0.00218883
0.00218462
0.00212118
0.00164604
0.000312267
0.000926891
0.000915778
0.000914601
0.000913925
0.000912104
0.000913317
0.000913411
0.000915408
0.000914774
0.000901842
0.000774804
0.000264037
9.46916e-05
9.3959e-05
9.36244e-05
9.33878e-05
9.31155e-05
9.30274e-05
9.28301e-05
9.27591e-05
9.26362e-05
9.21295e-05
8.6731e-05
6.20552e-05
0.000329499
0.00250268
0.00411489
0.00449756
0.004554
0.0045608
0.00456163
0.00456175
0.00456157
0.00456164
0.00456154
0.00456104
0.000274684
0.00234565
0.00405804
0.00448976
0.00455398
0.00456167
0.00456256
0.00456258
0.00456249
0.00456261
0.00456257
0.00456221
0.000275037
0.00235195
0.00406396
0.00449224
0.00455511
0.00456262
0.00456339
0.00456343
0.00456342
0.00456357
0.00456352
0.00456315
0.000285024
0.00240887
0.0040951
0.0044994
0.00455681
0.00456356
0.0045642
0.0045642
0.00456417
0.00456438
0.00456437
0.00456401
0.000296767
0.00248056
0.00413307
0.00450769
0.00455861
0.00456438
0.00456495
0.00456485
0.00456487
0.00456501
0.00456498
0.00456469
0.000309109
0.00255323
0.00416464
0.00450856
0.00455313
0.00455798
0.00455848
0.00455833
0.00455841
0.00455848
0.0045584
0.00455814
0.000321567
0.00260516
0.00414801
0.00445853
0.00449707
0.00450118
0.00450159
0.0045015
0.00450163
0.00450153
0.00450139
0.00450165
0.000331944
0.00255497
0.00391258
0.00416991
0.00420117
0.00420476
0.00420537
0.00420549
0.00420564
0.00420548
0.00420504
0.00420576
0.000333403
0.00224702
0.00320874
0.00337804
0.00339866
0.00340161
0.00340254
0.00340289
0.00340308
0.00340282
0.00340182
0.00340366
0.000315447
0.00164189
0.00211578
0.0021882
0.0021972
0.00219881
0.00220019
0.00220035
0.00219955
0.00219873
0.0021994
0.00219922
0.000267314
0.000779136
0.000902318
0.000918361
0.000920669
0.000920924
0.000922465
0.000922228
0.000921486
0.000921119
0.000922201
0.000920598
6.19168e-05
8.65955e-05
9.18478e-05
9.24961e-05
9.27716e-05
9.29437e-05
9.32749e-05
9.34883e-05
9.38072e-05
9.43914e-05
9.48335e-05
9.46001e-05
)
;

boundaryField
{
    rotor
    {
        type            nutkWallFunction;
        Cmu             0.09;
        kappa           0.41;
        E               9.8;
        value           nonuniform List<scalar> 
48
(
1.15745e-05
2.54393e-05
2.60097e-05
2.65972e-05
2.62387e-05
2.66632e-05
2.65866e-05
2.67115e-05
2.61717e-05
2.62875e-05
2.6792e-05
2.69905e-05
2.65372e-05
2.64883e-05
2.61743e-05
2.64145e-05
2.67351e-05
2.71221e-05
2.6734e-05
2.64483e-05
2.59214e-05
2.49694e-05
2.3251e-05
8.09351e-06
1.15745e-05
1.09491e-05
1.27079e-05
1.46222e-05
1.64823e-05
1.87203e-05
2.05347e-05
2.29079e-05
2.47568e-05
2.66624e-05
2.90236e-05
3.60723e-05
8.09351e-06
1.09379e-05
1.31167e-05
1.50089e-05
1.69863e-05
1.87042e-05
2.08499e-05
2.2958e-05
2.56482e-05
2.80514e-05
3.09121e-05
3.51882e-05
)
;
    }
    stator
    {
        type            nutkWallFunction;
        Cmu             0.09;
        kappa           0.41;
        E               9.8;
        value           nonuniform List<scalar> 
48
(
1.79126e-05
1.78537e-05
1.78222e-05
1.7798e-05
1.7757e-05
1.77384e-05
1.77258e-05
1.77025e-05
1.7686e-05
1.76491e-05
1.72185e-05
1.47594e-05
1.47656e-05
1.72105e-05
1.76244e-05
1.76733e-05
1.76969e-05
1.77156e-05
1.7758e-05
1.77781e-05
1.78166e-05
1.78797e-05
1.78899e-05
1.78597e-05
5.08923e-05
4.83916e-05
4.9571e-05
5.13561e-05
5.32732e-05
5.52166e-05
5.71738e-05
5.90336e-05
6.04283e-05
6.03284e-05
5.7023e-05
1.47656e-05
5.08968e-05
4.8328e-05
4.95267e-05
5.13312e-05
5.32465e-05
5.52159e-05
5.72058e-05
5.90743e-05
6.03647e-05
6.01026e-05
5.67329e-05
1.47594e-05
)
;
    }
    front
    {
        type            empty;
    }
    back
    {
        type            empty;
    }
    procBoundary0to1
    {
        type            processor;
        value           nonuniform List<scalar> 
20
(
0.000885033
0.00235084
0.00361769
0.00425141
0.00446908
0.0045348
0.00455334
0.00455881
0.00456083
0.00456199
0.00456299
0.00456383
0.00456457
0.00455805
0.00450159
0.00420553
0.00340309
0.00219864
0.000920274
9.41074e-05
)
;
    }
    procBoundary0to2
    {
        type            processor;
        value           nonuniform List<scalar> 
20
(
0.00129501
0.00269524
0.00378767
0.00430551
0.00448293
0.00453693
0.00455267
0.00455753
0.00455954
0.00456074
0.00456175
0.0045626
0.00456336
0.00455833
0.00450641
0.00422533
0.0034245
0.00220634
0.000927194
9.51351e-05
)
;
    }
}


// ************************************************************************* //
