/*--------------------------------*- C++ -*----------------------------------*\
  =========                 |
  \\      /  F ield         | OpenFOAM: The Open Source CFD Toolbox
   \\    /   O peration     | Website:  https://openfoam.org
    \\  /    A nd           | Version:  6
     \\/     M anipulation  |
\*---------------------------------------------------------------------------*/
FoamFile
{
    version     2.0;
    format      ascii;
    class       volScalarField;
    location    "1500";
    object      k;
}
// * * * * * * * * * * * * * * * * * * * * * * * * * * * * * * * * * * * * * //

dimensions      [0 2 -2 0 0 0 0];

internalField   nonuniform List<scalar> 
3072
(
0.409943
0.563566
0.609162
0.644421
0.64367
0.65746
0.649594
0.656076
0.634286
0.640387
0.656537
0.671115
0.477394
0.772987
0.902388
0.943737
0.955551
0.961191
0.962421
0.963842
0.962669
0.96327
0.963606
0.964732
0.471678
0.81631
0.939873
0.97132
0.980081
0.982976
0.983832
0.984175
0.984122
0.984174
0.984138
0.984175
0.465194
0.828988
0.948188
0.975468
0.982931
0.985305
0.986
0.986238
0.986269
0.98631
0.986249
0.986211
0.477704
0.839725
0.952807
0.976843
0.983309
0.985291
0.985818
0.985977
0.98595
0.985934
0.985899
0.985927
0.487036
0.850221
0.956961
0.977722
0.983184
0.984681
0.985108
0.985096
0.985109
0.985041
0.985098
0.985019
0.504827
0.865135
0.961799
0.978871
0.982922
0.984087
0.98424
0.984317
0.984194
0.984196
0.984012
0.983966
0.504852
0.879127
0.967512
0.980059
0.982755
0.983407
0.983451
0.983353
0.983216
0.983104
0.983076
0.982953
0.526834
0.89379
0.973847
0.981527
0.98261
0.982783
0.982609
0.98241
0.982352
0.982261
0.982147
0.982083
0.51894
0.895937
0.979015
0.982876
0.982477
0.982113
0.981723
0.981435
0.981398
0.981291
0.981182
0.981116
0.538168
0.900684
0.983372
0.983973
0.982312
0.981486
0.980794
0.980458
0.980425
0.980207
0.980119
0.980155
0.712237
0.947916
0.987994
0.984362
0.981759
0.980567
0.979704
0.979414
0.9793
0.979134
0.979111
0.979202
0.66107
0.66172
0.641955
0.635142
0.6482
0.663124
0.649071
0.638714
0.618973
0.580743
0.513284
0.391731
0.964011
0.964281
0.963365
0.963802
0.96479
0.966461
0.96638
0.964302
0.952514
0.905373
0.739542
0.453077
0.984036
0.984015
0.983902
0.983948
0.984029
0.984223
0.984223
0.983458
0.978691
0.953678
0.835108
0.474766
0.986162
0.98615
0.986104
0.986139
0.986152
0.9862
0.986186
0.985716
0.982472
0.963611
0.85882
0.48545
0.985923
0.985921
0.985861
0.985862
0.985882
0.9859
0.985925
0.985649
0.983185
0.967353
0.869476
0.492961
0.985031
0.984972
0.984944
0.984866
0.984928
0.984923
0.984981
0.984833
0.982991
0.970024
0.880658
0.489931
0.983893
0.98396
0.983869
0.983883
0.983793
0.983843
0.983897
0.984001
0.983032
0.973006
0.889812
0.501559
0.982894
0.982874
0.982794
0.982728
0.982792
0.982892
0.983128
0.983432
0.983116
0.976711
0.905348
0.517554
0.982
0.981928
0.9819
0.981825
0.981839
0.982065
0.982301
0.982777
0.983678
0.980401
0.916711
0.545718
0.980933
0.980805
0.980821
0.980845
0.98095
0.981225
0.98161
0.982406
0.983931
0.984787
0.935301
0.56596
0.98003
0.979919
0.979996
0.979969
0.980032
0.98035
0.980844
0.981822
0.984328
0.988878
0.958914
0.605176
0.979092
0.979017
0.979094
0.979074
0.979252
0.979586
0.980041
0.981104
0.984011
0.994252
1.01749
0.688167
0.615188
0.604528
0.627928
0.652556
0.637465
0.655354
0.652107
0.657406
0.634665
0.639505
0.660839
0.669342
0.458737
0.779073
0.904094
0.944403
0.955815
0.962026
0.963938
0.965012
0.963061
0.963305
0.96393
0.964903
0.456799
0.821768
0.94126
0.97141
0.98
0.982983
0.983908
0.984259
0.984132
0.984186
0.984171
0.984215
0.463222
0.83426
0.949439
0.97555
0.982842
0.985204
0.985918
0.986187
0.986233
0.98627
0.98623
0.98624
0.467369
0.842132
0.953487
0.976785
0.983288
0.985082
0.985779
0.985842
0.986028
0.985915
0.986027
0.985926
0.486974
0.854269
0.957473
0.977992
0.982957
0.984721
0.984913
0.985234
0.985007
0.985196
0.984988
0.985147
0.488892
0.863844
0.961876
0.978814
0.982963
0.983954
0.984293
0.984207
0.984149
0.984039
0.984015
0.983861
0.511661
0.877097
0.967383
0.980014
0.982683
0.983284
0.983385
0.983313
0.983141
0.983051
0.982895
0.982695
0.514385
0.890319
0.97313
0.981485
0.982566
0.982622
0.982505
0.982347
0.98218
0.982103
0.981902
0.981683
0.519214
0.897345
0.979563
0.98298
0.982522
0.982082
0.981692
0.981458
0.981317
0.981164
0.981023
0.980999
0.538819
0.904319
0.984055
0.984259
0.9824
0.981389
0.980728
0.980347
0.980128
0.979982
0.979929
0.980055
0.718196
0.95169
0.989409
0.984698
0.981834
0.980532
0.979807
0.979327
0.979201
0.979099
0.978991
0.979077
0.650015
0.64795
0.634776
0.64484
0.658413
0.675009
0.658365
0.646263
0.624275
0.58563
0.519383
0.400628
0.963708
0.96357
0.963247
0.964789
0.966061
0.967898
0.967573
0.965231
0.952887
0.904959
0.73946
0.458141
0.984036
0.984039
0.984019
0.984203
0.98435
0.984602
0.984555
0.983775
0.978875
0.953454
0.834385
0.476959
0.986155
0.986185
0.986187
0.986228
0.986257
0.986316
0.986289
0.985816
0.982457
0.963045
0.856385
0.480969
0.986006
0.98588
0.985936
0.985838
0.985986
0.98595
0.986118
0.985659
0.98316
0.966596
0.866245
0.489047
0.984915
0.985074
0.984856
0.985012
0.984842
0.985064
0.984984
0.984995
0.982874
0.969132
0.877778
0.486322
0.983868
0.983755
0.98382
0.983736
0.983762
0.983777
0.984094
0.98404
0.982833
0.9724
0.884794
0.501052
0.982627
0.98264
0.982583
0.982544
0.98257
0.98277
0.983042
0.983402
0.983087
0.975669
0.904472
0.513523
0.981665
0.981588
0.981501
0.981513
0.981623
0.981837
0.982252
0.982784
0.983445
0.980479
0.913774
0.546338
0.980933
0.980835
0.980774
0.980824
0.980899
0.981048
0.981546
0.982338
0.98394
0.984123
0.936303
0.567146
0.97997
0.97994
0.980095
0.980106
0.980086
0.980244
0.980755
0.981717
0.984078
0.989203
0.957978
0.602655
0.979193
0.979234
0.979304
0.979198
0.979189
0.979444
0.97992
0.981041
0.984056
0.993839
1.01619
0.686113
0.410724
0.564569
0.609824
0.64537
0.644503
0.654993
0.634683
0.643767
0.659938
0.67234
0.647979
0.644172
0.478148
0.773065
0.902224
0.943681
0.95554
0.961
0.961754
0.963652
0.964401
0.965387
0.963779
0.963808
0.481887
0.817268
0.939977
0.971331
0.980072
0.982943
0.98378
0.9842
0.984277
0.984315
0.984127
0.984109
0.482971
0.830831
0.948438
0.975509
0.982935
0.985299
0.985985
0.986228
0.986244
0.98628
0.986252
0.986244
0.491381
0.841164
0.952956
0.976849
0.983284
0.985282
0.985834
0.986001
0.985986
0.985985
0.985912
0.985885
0.494354
0.850701
0.956899
0.977659
0.983132
0.984633
0.985072
0.98506
0.985088
0.985021
0.985077
0.985
0.503051
0.86481
0.961607
0.978759
0.982837
0.984019
0.984161
0.984213
0.98408
0.984132
0.983974
0.983931
0.500971
0.878351
0.967253
0.979969
0.982701
0.98335
0.983402
0.983236
0.983082
0.983068
0.983035
0.982991
0.523984
0.89339
0.973691
0.981467
0.98256
0.982681
0.982595
0.982424
0.982292
0.982083
0.981955
0.982008
0.518598
0.896067
0.978995
0.982857
0.982435
0.982073
0.981827
0.981492
0.981325
0.981146
0.981049
0.98112
0.538219
0.900958
0.98341
0.984035
0.98229
0.981449
0.981013
0.980691
0.980408
0.980308
0.980153
0.980114
0.709818
0.947868
0.987942
0.984399
0.981902
0.980672
0.979977
0.979636
0.979582
0.979565
0.979431
0.979394
0.654149
0.661698
0.641864
0.640875
0.648223
0.662772
0.648344
0.639151
0.61931
0.581099
0.513743
0.392779
0.963789
0.964668
0.963653
0.963906
0.964774
0.966526
0.966438
0.964383
0.952536
0.905285
0.739448
0.453584
0.984028
0.984055
0.983948
0.984
0.984086
0.984248
0.984208
0.983444
0.978683
0.953626
0.834766
0.473825
0.986159
0.986136
0.986111
0.986153
0.98616
0.986195
0.986146
0.985668
0.982428
0.963432
0.857746
0.478684
0.985844
0.98587
0.985809
0.985768
0.985767
0.985827
0.985905
0.985644
0.983168
0.967221
0.868489
0.485739
0.984996
0.984891
0.984903
0.984809
0.984819
0.984868
0.984997
0.98486
0.983011
0.970045
0.880399
0.487302
0.983818
0.983843
0.983825
0.983886
0.983827
0.983918
0.983962
0.984062
0.983061
0.972982
0.889553
0.500688
0.982923
0.982824
0.98278
0.982734
0.982779
0.982843
0.98311
0.983472
0.983161
0.97672
0.905292
0.517009
0.981971
0.981815
0.981722
0.981764
0.981817
0.981983
0.98231
0.98285
0.983722
0.980437
0.916615
0.54478
0.981072
0.980954
0.980788
0.980783
0.980861
0.981094
0.981577
0.982444
0.984018
0.984905
0.935229
0.565777
0.980012
0.979898
0.979918
0.980074
0.980155
0.980363
0.980865
0.981819
0.98436
0.988927
0.958572
0.604001
0.97914
0.979042
0.979098
0.979189
0.979442
0.979694
0.98011
0.98111
0.984008
0.994094
1.01611
0.688889
0.410722
0.562274
0.606843
0.638138
0.628842
0.645353
0.645538
0.669452
0.667406
0.666578
0.65592
0.659497
0.477293
0.772901
0.902303
0.943161
0.9546
0.96016
0.962013
0.964705
0.964876
0.964901
0.96373
0.96384
0.470058
0.815683
0.939633
0.971154
0.979887
0.982776
0.983675
0.984139
0.984161
0.984149
0.983996
0.983978
0.464986
0.828517
0.948036
0.975358
0.98285
0.985206
0.985907
0.986166
0.986233
0.986288
0.986254
0.986234
0.477321
0.839284
0.95277
0.976724
0.983315
0.985162
0.985826
0.985897
0.986046
0.985944
0.985993
0.985887
0.48592
0.851469
0.956921
0.977893
0.983045
0.984785
0.985023
0.985301
0.985101
0.98523
0.985037
0.985181
0.489901
0.862836
0.961581
0.978786
0.983018
0.984067
0.984364
0.984294
0.984265
0.984084
0.984064
0.983994
0.507197
0.879158
0.967732
0.980109
0.982781
0.983395
0.983477
0.983359
0.983256
0.983084
0.982971
0.982958
0.50549
0.891439
0.973536
0.981571
0.982661
0.982772
0.982666
0.9825
0.982385
0.982253
0.982071
0.98201
0.518624
0.894863
0.979296
0.982943
0.982494
0.982147
0.981834
0.981554
0.981438
0.981339
0.981228
0.981092
0.536165
0.900075
0.983355
0.984121
0.982368
0.981513
0.980911
0.980561
0.980401
0.980319
0.98031
0.98024
0.708458
0.947657
0.988522
0.984445
0.981778
0.980498
0.979842
0.979562
0.979386
0.979309
0.979245
0.979273
0.642432
0.63974
0.651741
0.663965
0.655562
0.657106
0.654388
0.656563
0.622905
0.584904
0.518375
0.396437
0.962818
0.963222
0.963982
0.96575
0.965962
0.966716
0.966754
0.965316
0.953154
0.905765
0.740359
0.45582
0.983858
0.98395
0.98403
0.984242
0.984278
0.984417
0.984397
0.983703
0.978899
0.953767
0.835051
0.474882
0.986178
0.986215
0.986214
0.98625
0.986264
0.986314
0.986306
0.985829
0.982487
0.963256
0.85686
0.477467
0.985992
0.98592
0.985986
0.985884
0.985977
0.985942
0.986086
0.98565
0.983173
0.966771
0.865893
0.479647
0.984985
0.985121
0.984911
0.985034
0.984886
0.985103
0.985031
0.98501
0.982921
0.96938
0.878397
0.478596
0.984053
0.983954
0.98394
0.983829
0.983831
0.983836
0.984128
0.98407
0.982868
0.972552
0.885355
0.502053
0.982947
0.982832
0.982668
0.982631
0.982642
0.98283
0.983077
0.983416
0.983098
0.97569
0.904496
0.513834
0.981993
0.981916
0.981882
0.981805
0.981808
0.981965
0.982325
0.982786
0.983452
0.980531
0.9138
0.546616
0.9809
0.980854
0.980861
0.98091
0.981028
0.981201
0.981605
0.982357
0.984044
0.984189
0.936228
0.566979
0.980002
0.979937
0.979979
0.97996
0.980099
0.98041
0.980817
0.981753
0.98418
0.989334
0.957766
0.603363
0.979142
0.979073
0.979226
0.979184
0.979258
0.979628
0.980061
0.981139
0.984128
0.993987
1.0168
0.685595
0.969664
1.0025
0.992003
0.9838
0.980702
0.979561
0.978849
0.978527
0.978443
0.978323
0.978465
0.978349
1.01104
0.998717
0.987444
0.981685
0.97945
0.978464
0.977923
0.97771
0.977687
0.97759
0.977717
0.977589
0.997501
0.989023
0.982578
0.979516
0.978283
0.977573
0.977162
0.97705
0.977117
0.977107
0.977032
0.977013
0.986025
0.982202
0.97923
0.977759
0.977011
0.976739
0.97642
0.976399
0.976617
0.976375
0.976283
0.976305
0.978285
0.978326
0.978411
0.978523
0.978607
0.978837
0.979203
0.980155
0.982923
0.992461
1.02522
0.934786
0.977548
0.977571
0.9776
0.97789
0.977999
0.978086
0.978393
0.979099
0.980862
0.986626
1.00436
1.0237
0.977029
0.976962
0.977048
0.977278
0.977327
0.977381
0.97778
0.978208
0.979137
0.981852
0.98936
1.00038
0.9761
0.976148
0.976244
0.976436
0.976523
0.976566
0.976854
0.9771
0.97766
0.979025
0.98186
0.986176
0.97221
1.00443
0.992852
0.984076
0.980731
0.979476
0.978881
0.978503
0.978351
0.978378
0.978353
0.978332
1.01245
0.999852
0.988133
0.981843
0.979442
0.978358
0.977907
0.97766
0.977695
0.977756
0.977676
0.97766
0.998176
0.989644
0.982937
0.979655
0.978119
0.977253
0.977044
0.97696
0.976965
0.976899
0.976878
0.977114
0.986325
0.982559
0.979446
0.977791
0.976873
0.97628
0.976227
0.976228
0.97613
0.976151
0.976139
0.976209
0.978436
0.978478
0.97853
0.978526
0.978499
0.978613
0.979044
0.980016
0.98277
0.992388
1.02385
0.935387
0.977702
0.977727
0.977704
0.977837
0.977935
0.977931
0.978258
0.978954
0.980799
0.986423
1.00376
1.02212
0.977032
0.976953
0.976972
0.977118
0.977247
0.977302
0.977693
0.978125
0.979054
0.981859
0.98913
0.999784
0.97629
0.976436
0.976502
0.976417
0.976415
0.976584
0.976906
0.977237
0.977656
0.978855
0.981801
0.985968
0.969716
1.00192
0.991788
0.983746
0.980844
0.979614
0.979068
0.978947
0.978842
0.978662
0.978579
0.978628
1.01075
0.998427
0.987341
0.981632
0.979551
0.978663
0.978053
0.977856
0.977829
0.977843
0.977908
0.977861
0.997356
0.988902
0.982628
0.979482
0.978236
0.977819
0.977317
0.977093
0.977088
0.977044
0.977151
0.976975
0.985993
0.982269
0.979199
0.977698
0.976982
0.976678
0.976417
0.976413
0.97646
0.976476
0.976345
0.976144
0.978371
0.978307
0.978419
0.978507
0.978578
0.978684
0.979107
0.980078
0.982846
0.992273
1.024
0.936347
0.977761
0.977679
0.977725
0.977647
0.977667
0.97789
0.97826
0.979008
0.980806
0.986492
1.00373
1.02279
0.976777
0.976787
0.976766
0.976862
0.977142
0.977368
0.977578
0.977947
0.979002
0.981792
0.989079
0.999873
0.975921
0.976088
0.976297
0.976325
0.97635
0.976415
0.97688
0.977189
0.977584
0.978835
0.981711
0.98597
0.970024
1.00248
0.992136
0.98373
0.980615
0.979518
0.978998
0.978594
0.978438
0.978492
0.978482
0.978458
1.0113
0.998927
0.987627
0.981508
0.979324
0.978602
0.978182
0.977767
0.977703
0.977687
0.977558
0.977674
0.99766
0.989242
0.982518
0.979414
0.97822
0.977538
0.977188
0.977038
0.977057
0.977115
0.977039
0.977115
0.986104
0.982447
0.97923
0.977772
0.977335
0.97673
0.97635
0.976285
0.976356
0.97643
0.976354
0.976257
0.978411
0.978259
0.978236
0.9783
0.978382
0.978734
0.979219
0.980215
0.982949
0.992595
1.02446
0.933563
0.977543
0.977502
0.977617
0.977584
0.977624
0.977835
0.978254
0.979092
0.980992
0.986621
1.00407
1.02239
0.97682
0.976677
0.976873
0.976948
0.976941
0.977028
0.977358
0.977974
0.979123
0.982037
0.989237
0.999837
0.97595
0.975966
0.976084
0.976104
0.976202
0.976316
0.9766
0.977045
0.977648
0.978986
0.981972
0.986088
0.980127
0.978257
0.976949
0.976263
0.975908
0.975734
0.975576
0.975555
0.975601
0.975495
0.975154
0.974083
0.977291
0.976193
0.975557
0.975228
0.975068
0.974966
0.974896
0.974881
0.974884
0.97466
0.973038
0.967966
0.975793
0.974993
0.974644
0.974486
0.974418
0.974364
0.974339
0.974334
0.974283
0.973425
0.967407
0.946951
0.97487
0.974195
0.97397
0.973902
0.973866
0.973837
0.973831
0.973825
0.973637
0.97129
0.954067
0.876278
0.973902
0.97486
0.975338
0.975515
0.975601
0.975726
0.975901
0.976057
0.976348
0.976964
0.978146
0.979793
0.967267
0.972243
0.974304
0.974818
0.974947
0.975062
0.975149
0.975251
0.975378
0.97566
0.976114
0.976767
0.944979
0.965578
0.97259
0.974092
0.974365
0.974462
0.974511
0.974577
0.974629
0.974725
0.974913
0.975219
0.86963
0.950891
0.969849
0.973284
0.973834
0.973941
0.97398
0.974024
0.974036
0.974056
0.974107
0.974287
0.980222
0.978421
0.977005
0.976269
0.975805
0.975517
0.975437
0.975438
0.975443
0.975414
0.975085
0.974043
0.977297
0.976251
0.975601
0.97521
0.974982
0.974842
0.974799
0.974801
0.974797
0.974586
0.972976
0.967815
0.975763
0.975017
0.974629
0.974462
0.974346
0.974272
0.974253
0.974259
0.974198
0.973347
0.967261
0.946399
0.974841
0.974197
0.973969
0.973867
0.973804
0.973759
0.973757
0.97376
0.973557
0.971206
0.953785
0.873888
0.973933
0.974948
0.975415
0.975546
0.975629
0.975742
0.97587
0.976044
0.976364
0.97701
0.978176
0.979769
0.967243
0.972248
0.974323
0.974835
0.974979
0.975046
0.975127
0.97525
0.975443
0.975749
0.976229
0.976839
0.945009
0.965551
0.972588
0.974099
0.974382
0.97445
0.974504
0.974594
0.974698
0.97485
0.975039
0.975312
0.870757
0.950832
0.969837
0.973292
0.973846
0.973945
0.973985
0.974044
0.974092
0.974156
0.974222
0.974393
0.980113
0.978273
0.976923
0.976245
0.975905
0.975717
0.975589
0.975553
0.975581
0.975545
0.975181
0.974027
0.977295
0.976195
0.975545
0.975218
0.97507
0.974965
0.974902
0.974885
0.974891
0.974679
0.973036
0.967977
0.975802
0.974995
0.974646
0.974482
0.974422
0.974365
0.974336
0.974331
0.974278
0.973425
0.967409
0.94701
0.974891
0.974204
0.973985
0.9739
0.973876
0.973839
0.973825
0.97382
0.973629
0.971279
0.954045
0.876807
0.973866
0.974862
0.975344
0.975467
0.975541
0.975661
0.975868
0.976016
0.976299
0.976903
0.978089
0.979738
0.967267
0.972253
0.974305
0.974811
0.974933
0.975022
0.975109
0.975204
0.975357
0.975646
0.976115
0.976776
0.945007
0.9656
0.972598
0.974091
0.974359
0.974439
0.974481
0.974544
0.974618
0.974734
0.974933
0.975246
0.869274
0.950904
0.969857
0.973284
0.973831
0.973926
0.973958
0.973998
0.974025
0.974057
0.974131
0.974319
0.980157
0.978404
0.976931
0.976244
0.975944
0.975673
0.975505
0.975485
0.975513
0.975485
0.975167
0.974107
0.977296
0.976267
0.975602
0.975209
0.975036
0.974903
0.974837
0.974827
0.974829
0.974622
0.973048
0.967839
0.975784
0.975052
0.974654
0.974463
0.974371
0.97431
0.974289
0.974285
0.974228
0.973377
0.967317
0.946583
0.974867
0.974239
0.973997
0.973868
0.973819
0.973785
0.973776
0.973768
0.973571
0.971218
0.953918
0.874145
0.973806
0.974771
0.975268
0.975428
0.975534
0.975637
0.975783
0.97603
0.976402
0.977073
0.97826
0.979807
0.96722
0.972179
0.974266
0.974787
0.974938
0.975026
0.975115
0.975248
0.975459
0.975773
0.976253
0.976845
0.945086
0.965529
0.972567
0.97408
0.974368
0.974452
0.974509
0.974592
0.9747
0.974854
0.975045
0.975301
0.871434
0.950861
0.969834
0.973287
0.973845
0.973952
0.973992
0.974041
0.974084
0.974156
0.974222
0.974384
0.974241
0.973611
0.973452
0.973415
0.973402
0.973384
0.973388
0.973372
0.972987
0.968612
0.930719
0.652143
0.973719
0.973141
0.973018
0.972991
0.972984
0.972971
0.972974
0.97295
0.972455
0.966963
0.917177
0.547153
0.973307
0.972733
0.972627
0.972611
0.972611
0.972604
0.972608
0.972584
0.972069
0.966379
0.914571
0.535706
0.972914
0.972377
0.972278
0.972271
0.972268
0.972259
0.972262
0.97224
0.971762
0.966342
0.916087
0.539494
0.972587
0.972039
0.97196
0.971951
0.971952
0.971944
0.971947
0.971931
0.9715
0.966497
0.918763
0.543931
0.972172
0.971649
0.971569
0.971563
0.971565
0.971557
0.971559
0.971541
0.971167
0.966593
0.921462
0.549822
0.971195
0.970605
0.970495
0.970504
0.970498
0.970507
0.970498
0.970492
0.970153
0.965928
0.923058
0.555397
0.967062
0.966227
0.966052
0.966059
0.96604
0.966057
0.96604
0.966042
0.965723
0.961622
0.91988
0.558854
0.95118
0.949825
0.949364
0.949495
0.949293
0.949446
0.949312
0.949426
0.949021
0.944696
0.901499
0.552758
0.899491
0.896918
0.896282
0.896217
0.895984
0.896039
0.895963
0.896026
0.895679
0.890899
0.84398
0.520442
0.742329
0.738054
0.736994
0.736526
0.736127
0.735866
0.735696
0.73558
0.735349
0.731158
0.686548
0.44132
0.359822
0.358791
0.357945
0.356873
0.355751
0.35457
0.353468
0.352435
0.351701
0.350393
0.337342
0.268339
0.646648
0.928105
0.966704
0.972484
0.97333
0.973459
0.973491
0.973524
0.973519
0.973498
0.973514
0.973643
0.550391
0.91459
0.964739
0.971884
0.972897
0.973045
0.973073
0.973094
0.973074
0.973042
0.973027
0.973137
0.539423
0.91146
0.964063
0.971474
0.972509
0.972651
0.972685
0.972691
0.972676
0.972632
0.97262
0.972717
0.541838
0.912526
0.964067
0.971201
0.972172
0.972303
0.97233
0.972334
0.972312
0.972288
0.972257
0.972347
0.546533
0.914948
0.964333
0.970978
0.971857
0.971964
0.971994
0.971989
0.971982
0.971929
0.971921
0.972008
0.551657
0.917568
0.96457
0.970702
0.971479
0.971575
0.971587
0.971597
0.971573
0.971554
0.971521
0.971607
0.557485
0.919254
0.964034
0.969732
0.970425
0.970519
0.970519
0.97054
0.970509
0.9705
0.970472
0.970543
0.561358
0.916406
0.959851
0.965352
0.966003
0.96611
0.966098
0.966134
0.966092
0.96611
0.966067
0.966136
0.555466
0.898769
0.942953
0.948778
0.949367
0.949615
0.949508
0.94967
0.949519
0.949654
0.94952
0.949613
0.523579
0.842275
0.88933
0.895553
0.896267
0.896548
0.896533
0.896676
0.896603
0.896705
0.896614
0.896605
0.443666
0.68661
0.73014
0.735688
0.736461
0.736907
0.737045
0.737246
0.737302
0.737509
0.737512
0.737165
0.269228
0.337796
0.350242
0.35155
0.351905
0.352477
0.353327
0.353924
0.355192
0.355533
0.355352
0.355712
0.974191
0.973606
0.973429
0.973378
0.973339
0.973316
0.97332
0.973311
0.972912
0.968537
0.930298
0.647414
0.973673
0.973122
0.972998
0.972956
0.972925
0.972909
0.972916
0.972899
0.972395
0.966896
0.916882
0.546313
0.973239
0.972715
0.972604
0.972579
0.972556
0.972547
0.97255
0.972534
0.972016
0.966321
0.914359
0.536004
0.972858
0.972347
0.972261
0.972232
0.972222
0.972214
0.972214
0.972198
0.971719
0.966292
0.915933
0.538869
0.972516
0.972023
0.971944
0.971933
0.971912
0.971908
0.971901
0.971888
0.97146
0.966447
0.918666
0.543936
0.972127
0.971627
0.971562
0.971539
0.971533
0.971528
0.971521
0.971507
0.97113
0.966551
0.921412
0.549945
0.971144
0.970579
0.970493
0.970458
0.970471
0.970454
0.970466
0.970443
0.970118
0.96588
0.923036
0.55619
0.967021
0.96618
0.966033
0.965969
0.965998
0.965969
0.966001
0.965975
0.96568
0.961559
0.919859
0.559976
0.951197
0.949676
0.949395
0.94915
0.949304
0.949147
0.949326
0.949213
0.948999
0.944538
0.901425
0.553054
0.899378
0.896679
0.895959
0.895572
0.895521
0.89544
0.895635
0.895621
0.895422
0.890537
0.843559
0.51942
0.741803
0.737116
0.735827
0.73512
0.734472
0.734373
0.734718
0.734767
0.734704
0.730426
0.685605
0.439341
0.358247
0.356433
0.355466
0.354724
0.353471
0.3529
0.352517
0.351806
0.351302
0.35018
0.33722
0.268467
0.647302
0.927924
0.966682
0.972489
0.973343
0.973466
0.973503
0.973545
0.973569
0.973591
0.973619
0.973728
0.547708
0.914258
0.964709
0.971884
0.972913
0.973054
0.973081
0.973109
0.97311
0.973113
0.973112
0.973231
0.536937
0.911169
0.964034
0.971478
0.972518
0.972663
0.972681
0.972705
0.972706
0.972703
0.972708
0.972792
0.539381
0.912289
0.964046
0.971204
0.972182
0.972315
0.972329
0.97234
0.972334
0.97233
0.972321
0.97243
0.544472
0.914765
0.964314
0.970986
0.971858
0.971979
0.971993
0.971998
0.972007
0.971991
0.971996
0.972071
0.549959
0.917402
0.964559
0.970704
0.971486
0.971588
0.9716
0.971596
0.971597
0.971589
0.971576
0.971684
0.555574
0.919084
0.964028
0.969737
0.970431
0.970532
0.970533
0.970538
0.970539
0.970528
0.970533
0.970601
0.559207
0.916231
0.959853
0.965362
0.966017
0.966126
0.966117
0.966137
0.966124
0.96613
0.966116
0.966201
0.554218
0.898641
0.942997
0.948789
0.949416
0.94963
0.949558
0.949659
0.949607
0.94967
0.94961
0.949709
0.523326
0.842311
0.88945
0.895656
0.896366
0.896659
0.89666
0.896743
0.896727
0.896862
0.896859
0.896858
0.443807
0.686991
0.730373
0.735892
0.73661
0.737081
0.737413
0.737564
0.737626
0.738219
0.738251
0.737731
0.26863
0.336981
0.349428
0.350916
0.351635
0.352204
0.353501
0.354115
0.355296
0.357234
0.357546
0.356618
0.974253
0.973617
0.973456
0.973409
0.973407
0.973384
0.973377
0.973363
0.972973
0.968591
0.93069
0.653285
0.973737
0.973142
0.973012
0.972982
0.972988
0.972966
0.972963
0.97294
0.972447
0.966945
0.917094
0.547851
0.973316
0.972737
0.972624
0.972601
0.972612
0.972599
0.972596
0.972576
0.972063
0.966363
0.914516
0.536344
0.972924
0.972382
0.972281
0.972266
0.972271
0.97226
0.972258
0.972236
0.971761
0.966331
0.916043
0.540671
0.972593
0.972045
0.971961
0.971946
0.971951
0.971946
0.971942
0.971929
0.971496
0.966489
0.91873
0.544692
0.972182
0.971658
0.971574
0.971566
0.971567
0.971559
0.971557
0.971539
0.971166
0.966589
0.921425
0.550508
0.971211
0.970605
0.970509
0.9705
0.970501
0.970502
0.970497
0.970484
0.970152
0.96592
0.92302
0.555318
0.967082
0.966221
0.966082
0.966056
0.966047
0.966048
0.966043
0.966032
0.965726
0.961616
0.919844
0.558686
0.951295
0.949739
0.949456
0.949409
0.949356
0.949373
0.949345
0.949367
0.949057
0.944659
0.90151
0.552373
0.899643
0.896853
0.896324
0.89611
0.895992
0.895951
0.895903
0.895971
0.895705
0.890895
0.844038
0.520623
0.742541
0.737891
0.736819
0.736077
0.735704
0.735564
0.73543
0.73546
0.73538
0.731219
0.686794
0.441592
0.359266
0.358089
0.357135
0.355497
0.353952
0.353277
0.352696
0.351864
0.351209
0.349967
0.337036
0.267868
0.646527
0.92814
0.966717
0.972488
0.97333
0.973453
0.973477
0.973513
0.973509
0.973508
0.97353
0.973669
0.550828
0.914637
0.964748
0.971882
0.972895
0.973038
0.973059
0.973083
0.973069
0.97306
0.973054
0.973164
0.539896
0.911511
0.964069
0.971479
0.972511
0.97265
0.972673
0.972687
0.972672
0.972654
0.972643
0.972739
0.542267
0.91256
0.964069
0.971201
0.972176
0.972301
0.972326
0.972332
0.972316
0.972299
0.972277
0.972368
0.547173
0.91499
0.964336
0.970984
0.97186
0.971967
0.971995
0.97199
0.971987
0.971953
0.971943
0.972028
0.552111
0.917593
0.964572
0.9707
0.971479
0.971573
0.971593
0.971594
0.971584
0.971568
0.971541
0.971624
0.558138
0.919285
0.96404
0.969731
0.970425
0.970513
0.970527
0.970535
0.970526
0.970508
0.970487
0.970561
0.561879
0.916423
0.959853
0.965345
0.966003
0.966098
0.966108
0.966133
0.966111
0.966118
0.966083
0.966157
0.55582
0.898747
0.942985
0.948737
0.949413
0.949557
0.949572
0.949634
0.94959
0.949624
0.949558
0.949662
0.523335
0.842222
0.889319
0.895525
0.896289
0.8965
0.896597
0.896737
0.896678
0.89672
0.896682
0.896735
0.443239
0.686473
0.730086
0.735666
0.736496
0.736866
0.737241
0.737574
0.737464
0.737573
0.737749
0.737484
0.269295
0.337852
0.350277
0.35157
0.351902
0.352545
0.353623
0.354337
0.354716
0.355299
0.355633
0.35591
0.974214
0.973645
0.973453
0.973379
0.97336
0.973338
0.97333
0.973314
0.972923
0.96856
0.930512
0.647956
0.973695
0.973154
0.973013
0.972955
0.972951
0.972926
0.97292
0.972896
0.972398
0.966907
0.917126
0.545878
0.973263
0.972742
0.972624
0.972588
0.972582
0.972562
0.972558
0.972533
0.972022
0.966337
0.914509
0.535976
0.972882
0.97237
0.972278
0.972251
0.972248
0.972226
0.972223
0.972197
0.97172
0.966298
0.916057
0.538737
0.972537
0.972042
0.97196
0.971942
0.971932
0.971915
0.971917
0.971889
0.971466
0.966457
0.91873
0.544076
0.972143
0.971644
0.97158
0.971561
0.971555
0.971533
0.971535
0.971511
0.971134
0.966554
0.921456
0.549679
0.971162
0.970593
0.970513
0.97048
0.97049
0.970461
0.970482
0.970447
0.970128
0.965883
0.923051
0.556168
0.967044
0.966198
0.966055
0.965999
0.966027
0.965991
0.966026
0.965982
0.965697
0.96156
0.919877
0.559678
0.951241
0.949711
0.949428
0.949231
0.949366
0.949202
0.949381
0.949211
0.94905
0.944524
0.901477
0.552777
0.899509
0.896801
0.896101
0.895798
0.895798
0.895684
0.895786
0.895678
0.895513
0.890561
0.843636
0.519325
0.742161
0.73754
0.736267
0.735702
0.73539
0.735207
0.735079
0.734948
0.734862
0.730522
0.685729
0.439364
0.358635
0.356951
0.356029
0.355277
0.354328
0.353514
0.352582
0.351844
0.351277
0.350139
0.337146
0.2683
0.64795
0.927937
0.966682
0.972486
0.973343
0.973473
0.973506
0.97354
0.973561
0.973595
0.973624
0.97372
0.547998
0.914249
0.964709
0.971885
0.972911
0.973056
0.973078
0.973105
0.973104
0.973122
0.973115
0.973225
0.537566
0.911172
0.964035
0.971479
0.972519
0.972659
0.972681
0.972706
0.972709
0.972702
0.972707
0.972782
0.540643
0.912327
0.96405
0.971209
0.972188
0.972316
0.972329
0.972345
0.972343
0.972333
0.972317
0.972426
0.545329
0.91479
0.964314
0.970989
0.971866
0.971986
0.971994
0.972004
0.972012
0.971986
0.971993
0.972064
0.550745
0.917419
0.964563
0.970711
0.971499
0.971599
0.971601
0.971606
0.971599
0.97158
0.971569
0.971679
0.556001
0.919075
0.964025
0.969751
0.970437
0.97055
0.970528
0.970562
0.970528
0.970529
0.970534
0.970597
0.559671
0.916231
0.959855
0.965388
0.966024
0.966153
0.966114
0.966167
0.966099
0.966137
0.966119
0.966193
0.554551
0.898692
0.942957
0.948884
0.949366
0.94974
0.94949
0.949796
0.949492
0.949754
0.949626
0.949698
0.524511
0.842422
0.889496
0.895788
0.896411
0.896782
0.896659
0.896954
0.89665
0.896931
0.896977
0.896739
0.445258
0.687323
0.73058
0.736163
0.736809
0.737283
0.737426
0.738006
0.737564
0.738141
0.738365
0.737555
0.269049
0.337129
0.349687
0.351015
0.351887
0.35227
0.353778
0.354604
0.35545
0.356022
0.356906
0.356848
)
;

boundaryField
{
    rotor
    {
        type            kqRWallFunction;
        value           nonuniform List<scalar> 
192
(
0.409943
0.563566
0.609162
0.644421
0.64367
0.65746
0.649594
0.656076
0.634286
0.640387
0.656537
0.671115
0.66107
0.66172
0.641955
0.635142
0.6482
0.663124
0.649071
0.638714
0.618973
0.580743
0.513284
0.391731
0.615188
0.604528
0.627928
0.652556
0.637465
0.655354
0.652107
0.657406
0.634665
0.639505
0.660839
0.669342
0.650015
0.64795
0.634776
0.64484
0.658413
0.675009
0.658365
0.646263
0.624275
0.58563
0.519383
0.400628
0.410724
0.564569
0.609824
0.64537
0.644503
0.654993
0.634683
0.643767
0.659938
0.67234
0.647979
0.644172
0.654149
0.661698
0.641864
0.640875
0.648223
0.662772
0.648344
0.639151
0.61931
0.581099
0.513743
0.392779
0.410722
0.562274
0.606843
0.638138
0.628842
0.645353
0.645538
0.669452
0.667406
0.666578
0.65592
0.659497
0.642432
0.63974
0.651741
0.663965
0.655562
0.657106
0.654388
0.656563
0.622905
0.584904
0.518375
0.396437
0.409943
0.477394
0.471678
0.465194
0.477704
0.487036
0.504827
0.504852
0.526834
0.51894
0.538168
0.712237
0.396437
0.45582
0.474882
0.477467
0.479647
0.478596
0.502053
0.513834
0.546616
0.566979
0.603363
0.685595
0.615188
0.458737
0.456799
0.463222
0.467369
0.486974
0.488892
0.511661
0.514385
0.519214
0.538819
0.718196
0.391731
0.453077
0.474766
0.48545
0.492961
0.489931
0.501559
0.517554
0.545718
0.56596
0.605176
0.688167
0.410724
0.478148
0.481887
0.482971
0.491381
0.494354
0.503051
0.500971
0.523984
0.518598
0.538219
0.709818
0.400628
0.458141
0.476959
0.480969
0.489047
0.486322
0.501052
0.513523
0.546338
0.567146
0.602655
0.686113
0.410722
0.477293
0.470058
0.464986
0.477321
0.48592
0.489901
0.507197
0.50549
0.518624
0.536165
0.708458
0.392779
0.453584
0.473825
0.478684
0.485739
0.487302
0.500688
0.517009
0.54478
0.565777
0.604001
0.688889
)
;
    }
    stator
    {
        type            kqRWallFunction;
        value           nonuniform List<scalar> 
192
(
0.359822
0.358791
0.357945
0.356873
0.355751
0.35457
0.353468
0.352435
0.351701
0.350393