/*--------------------------------*- C++ -*----------------------------------*\
  =========                 |
  \\      /  F ield         | OpenFOAM: The Open Source CFD Toolbox
   \\    /   O peration     | Website:  https://openfoam.org
    \\  /    A nd           | Version:  6
     \\/     M anipulation  |
\*---------------------------------------------------------------------------*/
FoamFile
{
    version     2.0;
    format      ascii;
    class       volScalarField;
    location    "1500";
    object      nut;
}
// * * * * * * * * * * * * * * * * * * * * * * * * * * * * * * * * * * * * * //

dimensions      [0 2 -1 0 0 0 0];

internalField   nonuniform List<scalar> 
3072
(
5.72468e-05
0.000147486
0.000164714
0.000180086
0.00018092
0.000186532
0.000184433
0.000186156
0.000176278
0.000175875
0.000179843
0.000186996
7.88354e-05
0.000507692
0.000908676
0.00116002
0.00129174
0.00135775
0.0013909
0.00140855
0.0014161
0.00141804
0.00141562
0.00141863
8.63888e-05
0.000676984
0.00156543
0.00238166
0.00288065
0.00310515
0.00319085
0.00322069
0.00323111
0.0032344
0.00323293
0.00323044
9.48177e-05
0.000757115
0.00187409
0.003013
0.00373095
0.0040409
0.00414743
0.00418097
0.00419105
0.00419321
0.0041922
0.00419063
0.0001052
0.00081328
0.00203695
0.00327389
0.00402154
0.00432499
0.00442268
0.00445087
0.00445826
0.00445984
0.00445991
0.00445968
0.000115503
0.000874295
0.00216715
0.00342357
0.00413731
0.00440874
0.00449147
0.00451383
0.00451956
0.00452121
0.0045217
0.004521
0.000129302
0.000941687
0.00228777
0.0035408
0.00420583
0.00444403
0.00451315
0.00453126
0.00453576
0.00453636
0.00453509
0.00453345
0.000133742
0.00100335
0.00240023
0.00363821
0.00425623
0.00446557
0.00452362
0.00453806
0.00454079
0.00454059
0.00454027
0.00453855
0.000149163
0.00106095
0.00249664
0.00371819
0.00429537
0.00448194
0.00453091
0.00454207
0.00454405
0.00454473
0.00454473
0.00454378
0.000154646
0.0010808
0.00256626
0.00377769
0.00432486
0.00449369
0.0045359
0.00454264
0.00454312
0.00454569
0.0045457
0.00454527
0.000171889
0.0010648
0.0026217
0.00383608
0.00435372
0.00450413
0.00453918
0.0045435
0.00454307
0.00454484
0.00454538
0.00454508
0.000253984
0.0011794
0.00281195
0.00395845
0.00439662
0.00451584
0.00454182
0.00454471
0.00454236
0.00454278
0.00454377
0.00454507
0.000182878
0.000182478
0.000172903
0.000168507
0.000174517
0.000177401
0.000170414
0.000166211
0.000161583
0.0001511
0.000129733
5.28597e-05
0.00141891
0.00141827
0.00141661
0.00141539
0.00141584
0.00141339
0.0014106
0.00138044
0.0012442
0.000921142
0.000421285
7.11817e-05
0.00322846
0.00322644
0.00322503
0.00322435
0.00322485
0.00322315
0.00320329
0.00307
0.00259448
0.00169872
0.000714245
8.7326e-05
0.00418947
0.0041883
0.00418724
0.00418651
0.00418631
0.00418405
0.00415993
0.00398898
0.00335326
0.00212745
0.000861916
9.96068e-05
0.00445977
0.00445976
0.00445934
0.00445879
0.00445839
0.0044564
0.00443626
0.00428606
0.00366625
0.0023614
0.000957945
0.000109133
0.00452003
0.00452015
0.00452042
0.00452023
0.00452008
0.00451885
0.00450337
0.00438178
0.00383127
0.00254091
0.00105457
0.000117325
0.00453281
0.00453344
0.00453366
0.00453381
0.00453363
0.00453319
0.00452204
0.00442659
0.00394927
0.00270779
0.00115055
0.00012852
0.00453752
0.00453816
0.0045383
0.00453749
0.00453721
0.0045381
0.00453044
0.00445551
0.00404569
0.00285956
0.00124142
0.000139832
0.00454167
0.00454088
0.00454168
0.00454023
0.00453953
0.00454069
0.00453475
0.00447741
0.00412897
0.00301377
0.00134147
0.000157452
0.0045433
0.00454184
0.00454295
0.00454211
0.00454185
0.0045432
0.00453949
0.00449578
0.0042043
0.00316741
0.0014554
0.000172426
0.0045464
0.00454605
0.00454509
0.00454579
0.00454615
0.0045463
0.00454293
0.00450951
0.00427421
0.00334013
0.00160983
0.000198954
0.00454712
0.00454751
0.00454825
0.00454915
0.0045495
0.0045492
0.00454585
0.00452327
0.00435144
0.00356998
0.00188529
0.000248269
9.93673e-05
0.00016329
0.000173938
0.000184403
0.000177866
0.000183065
0.000176107
0.000179936
0.000177141
0.00017548
0.000179382
0.000180269
7.63229e-05
0.000528832
0.00094704
0.00120231
0.00132551
0.00138259
0.00140504
0.00142002
0.00142966
0.00142687
0.0014206
0.00141852
8.52146e-05
0.000691897
0.00158715
0.00240767
0.00290384
0.00312179
0.00320111
0.00322886
0.00323987
0.003241
0.0032369
0.00323294
9.45064e-05
0.000765138
0.00188526
0.00302338
0.00373914
0.00404617
0.00415091
0.00418353
0.00419364
0.00419532
0.00419386
0.00419201
0.000102635
0.000824446
0.00204818
0.00328154
0.00402554
0.00432681
0.00442387
0.00445147
0.00445905
0.00446073
0.00446107
0.00446079
0.00011488
0.000884332
0.00217522
0.00342908
0.00413907
0.00440969
0.00449211
0.00451448
0.00451912
0.00452063
0.00452108
0.00452043
0.000120787
0.000936647
0.00229042
0.00354341
0.00420689
0.0044444
0.00451368
0.00453175
0.0045352
0.00453618
0.00453584
0.00453481
0.00013534
0.00100374
0.00240561
0.0036408
0.00425666
0.00446539
0.00452356
0.00453808
0.00453951
0.00453914
0.00453878
0.00453742
0.000140936
0.00106564
0.00250734
0.00372156
0.00429564
0.00448045
0.00452975
0.00454093
0.0045427
0.00454258
0.0045411
0.00453893
0.000152653
0.00110053
0.00258063
0.00378346
0.00432683
0.00449366
0.00453585
0.00454527
0.0045461
0.00454539
0.0045452
0.00454418
0.000171471
0.00108447
0.00263209
0.00384328
0.00435683
0.00450458
0.00453873
0.00454405
0.00454422
0.0045431
0.00454456
0.00454701
0.000256859
0.00119351
0.00281946
0.00396485
0.00439969
0.00451715
0.0045433
0.00454636
0.00454683
0.00454473
0.00454388
0.00454623
0.000177535
0.000181134
0.00016801
0.000172496
0.000178756
0.00018219
0.000173847
0.000168696
0.000163296
0.000152874
0.00013174
5.45479e-05
0.00142365
0.00142666
0.00141912
0.00141919
0.00141991
0.00141716
0.00141348
0.00138282
0.00124614
0.000920414
0.000417739
7.19829e-05
0.00323266
0.00323193
0.00322892
0.00322798
0.00322749
0.00322324
0.00320187
0.00306924
0.00259425
0.001696
0.00071149
8.80338e-05
0.00419067
0.00418987
0.00418895
0.00418816
0.00418768
0.00418495
0.00416024
0.00398919
0.00335327
0.00212908
0.000865381
0.000100899
0.00446041
0.0044599
0.00445933
0.00445871
0.00445873
0.00445706
0.00443715
0.00428613
0.00366775
0.0023631
0.000959104
0.000109327
0.0045202
0.00452019
0.00452001
0.00452003
0.00452022
0.00451901
0.00450398
0.00438271
0.00382883
0.00253989
0.00105171
0.000115272
0.00453417
0.00453309
0.0045332
0.00453347
0.00453399
0.00453381
0.00452316
0.00442747
0.00394605
0.0027065
0.00115007
0.00012821
0.00453661
0.00453655
0.0045362
0.00453614
0.00453718
0.00453812
0.00453064
0.00445595
0.00404501
0.00286024
0.00124151
0.00013844
0.00454022
0.00454016
0.00453946
0.00453981
0.00453879
0.00453967
0.00453512
0.00447796
0.00412979
0.00301545
0.00134162
0.000158361
0.00454417
0.00454399
0.00454379
0.00454455
0.0045438
0.00454293
0.0045389
0.00449492
0.00420692
0.00317475
0.00146113
0.00017813
0.00454512
0.0045454
0.00454726
0.00454694
0.0045441
0.00454282
0.00454075
0.00450776
0.00427534
0.00334583
0.00161088
0.000199094
0.00454732
0.00454902
0.00454979
0.00454673
0.00454417
0.00454396
0.00454298
0.00452064
0.00435218
0.0035732
0.00188074
0.000243674
5.74394e-05
0.000147995
0.000165046
0.000180643
0.000181393
0.000185167
0.000176062
0.000177075
0.000181174
0.000187032
0.000175263
0.000172278
7.90552e-05
0.00050754
0.000907289
0.00115862
0.00129039
0.00135605
0.00138756
0.00140302
0.00140849
0.00141451
0.00141412
0.00141491
9.02783e-05
0.000678857
0.00156487
0.00238006
0.0028789
0.00310354
0.00318957
0.00321964
0.00322881
0.00323058
0.00323011
0.00322971
9.91424e-05
0.000756729
0.00187169
0.00301049
0.00372986
0.00404035
0.00414695
0.00418034
0.00418967
0.00419111
0.0041908
0.0041903
0.000108416
0.000813106
0.00203311
0.00327131
0.00402026
0.0043247
0.00442267
0.0044507
0.00445767
0.00445897
0.00445919
0.0044592
0.000118619
0.00087529
0.00216266
0.00342023
0.00413557
0.00440796
0.00449064
0.00451252
0.0045171
0.00451812
0.00451985
0.00452055
0.000128549
0.000942208
0.00228266
0.00353562
0.00420321
0.00444255
0.00451181
0.00452874
0.00453128
0.00453235
0.004534
0.00453451
0.000134938
0.00100559
0.00239386
0.00363277
0.00425394
0.00446431
0.00452256
0.0045343
0.004535
0.00453746
0.00453986
0.00454
0.000149416
0.00106156
0.00248954
0.00371232
0.00429361
0.0044804
0.00453027
0.00453931
0.00453939
0.00454098
0.00454207
0.00454236
0.000153727
0.00107918
0.00255916
0.00377561
0.00432493
0.00449362
0.00453711
0.00454292
0.0045419
0.00454316
0.00454386
0.0045454
0.000171344
0.00106432
0.00261841
0.0038389
0.00435511
0.00450552
0.00454255
0.00454683
0.00454533
0.00454606
0.00454388
0.00454377
0.000252192
0.00117952
0.00281246
0.0039605
0.00440018
0.00451914
0.00454586
0.00454727
0.00454545
0.00454564
0.00454564
0.0045461
0.000176949
0.000177398
0.000174008
0.000178141
0.000174364
0.000177133
0.000169943
0.000166364
0.000161691
0.000151232
0.000129879
5.30848e-05
0.00141458
0.00141306
0.0014185
0.0014229
0.00141678
0.00141339
0.00141053
0.00138063
0.00124432
0.000920798
0.000420481
7.12715e-05
0.00322732
0.0032243
0.00322554
0.00322667
0.00322392
0.00322061
0.00320157
0.00306952
0.00259452
0.00169832
0.000713549
8.72136e-05
0.00418892
0.00418755
0.00418771
0.00418784
0.00418671
0.00418349
0.00415903
0.00398886
0.00335356
0.00213024
0.000865207
9.98941e-05
0.00445901
0.00445906
0.00445877
0.00445807
0.00445775
0.00445598
0.00443606
0.00428628
0.00366847
0.00236333
0.000959503
0.000108328
0.00451976
0.0045195
0.00452032
0.00452024
0.00451987
0.00451861
0.00450318
0.00438296
0.0038303
0.00254174
0.00105323
0.000116091
0.00453393
0.00453317
0.00453401
0.00453472
0.00453472
0.00453368
0.00452188
0.00442695
0.00394846
0.00270463
0.00114797
0.000128176
0.00453962
0.0045383
0.00453878
0.00453941
0.00453935
0.0045383
0.0045294
0.00445567
0.00404618
0.00285923
0.00124079
0.000139981
0.00454195
0.00453998
0.00453987
0.00454089
0.00454166
0.00454152
0.00453496
0.00447736
0.00413246
0.00301505
0.00134068
0.000157452
0.00454629
0.00454492
0.00454207
0.00454121
0.0045427
0.00454378
0.00453945
0.00449582
0.00420966
0.0031776
0.00145536
0.000172907
0.0045444
0.0045431
0.00454503
0.00454757
0.00454703
0.00454667
0.00454347
0.00451052
0.00427836
0.00335048
0.00160678
0.000197394
0.00454637
0.00454632
0.00454713
0.00454797
0.00454718
0.0045485
0.00454674
0.0045238
0.00435238
0.00357376
0.00188052
0.000246665
5.74747e-05
0.000147186
0.000163581
0.000177071
0.000172923
0.000180504
0.000180631
0.000183905
0.000181406
0.000184628
0.000180384
0.000181374
7.89202e-05
0.000508192
0.00090842
0.00115916
0.00128988
0.00135624
0.00138788
0.00139958
0.00140667
0.00141602
0.00141865
0.00141905
8.6078e-05
0.000677389
0.00156505
0.00238096
0.00287979
0.0031049
0.00319033
0.0032182
0.00322606
0.00322882
0.00322945
0.00322856
9.48452e-05
0.000757814
0.00187365
0.00301171
0.00373045
0.00404054
0.00414715
0.00418023
0.00418918
0.00419077
0.00419071
0.00418985
0.000105226
0.000814228
0.00203568
0.00327218
0.00402071
0.00432465
0.00442268
0.00445076
0.00445837
0.00445976
0.00445978
0.00445953
0.000114132
0.000877372
0.00216398
0.00342117
0.00413574
0.00440868
0.00449165
0.00451407
0.00451906
0.00451988
0.00451998
0.0045201
0.000123642
0.000939341
0.00228246
0.00353561
0.00420417
0.00444385
0.00451342
0.00453082
0.00453441
0.00453441
0.00453333
0.00453405
0.000138167
0.0010111
0.00239609
0.00363363
0.00425449
0.00446499
0.00452363
0.00453746
0.00453938
0.00453861
0.0045376
0.00453724
0.00014511
0.00106169
0.00248965
0.00371215
0.00429358
0.00448034
0.00453042
0.0045425
0.00454408
0.00454274
0.00454265
0.00454208
0.000157749
0.00107827
0.00255619
0.00377339
0.00432391
0.0044927
0.00453601
0.00454529
0.00454738
0.00454715
0.00454622
0.00454404
0.000169831
0.00105581
0.00260893
0.00383464
0.00435364
0.00450413
0.00453946
0.0045445
0.00454441
0.00454693
0.00454805
0.00454756
0.000250245
0.00117132
0.00280337
0.00395801
0.00439758
0.00451552
0.00454293
0.00454603
0.00454623
0.00454758
0.00454569
0.00454642
0.000173171
0.000170806
0.000176305
0.000177415
0.00017489
0.000179259
0.000177255
0.000175175
0.000163064
0.000152638
0.000131463
5.37299e-05
0.00141737
0.00141599
0.00141544
0.00141257
0.00141459
0.00141968
0.00141706
0.00138373
0.00124589
0.0009211
0.00041958
7.15941e-05
0.00322755
0.00322775
0.00322846
0.00322635
0.00322459
0.00322256
0.00320268
0.00307035
0.00259681
0.00169898
0.000713549
8.74473e-05
0.00418911
0.00418953
0.00419002
0.00418888
0.0041873
0.00418446
0.00416005
0.00398964
0.0033544
0.00213088
0.000865955
9.94901e-05
0.00445967
0.00445978
0.00445969
0.00445902
0.00445868
0.00445695
0.00443686
0.00428605
0.00366875
0.00236447
0.000958825
0.000105526
0.00451978
0.00452031
0.00452036
0.00451998
0.00451984
0.00451889
0.0045038
0.00438355
0.00383101
0.00254515
0.00105472
0.000112235
0.00453493
0.00453593
0.00453693
0.00453642
0.00453554
0.00453448
0.00452359
0.00442778
0.00394901
0.00271014
0.0011527
0.000128861
0.00453797
0.00453963
0.00453966
0.00453853
0.00453844
0.00453888
0.00453085
0.00445671
0.00404433
0.00286076
0.00124165
0.000138405
0.00454167
0.00454344
0.00454362
0.00454328
0.00454354
0.00454279
0.00453632
0.00447829
0.00412829
0.00301412
0.00134073
0.000158208
0.00454157
0.00454231
0.00454269
0.00454344
0.00454497
0.00454564
0.0045408
0.00449604
0.00420487
0.00316734
0.00145666
0.000175868
0.00454463
0.00454353
0.00454489
0.00454363
0.0045434
0.00454567
0.00454262
0.00450915
0.00427543
0.00334594
0.00160765
0.000199748
0.00454655
0.00454662
0.00454797
0.00454557
0.00454436
0.00454647
0.00454473
0.00452204
0.00435225
0.00357137
0.00188029
0.000245107
0.00129141
0.00231139
0.00348317
0.00419876
0.00445871
0.00453055
0.00454663
0.0045472
0.00454463
0.00454628
0.00454778
0.00454814
0.00268598
0.00339177
0.00404266
0.00438791
0.00450882
0.00454188
0.00454881
0.00454769
0.00454535
0.00454852
0.00455041
0.00454949
0.00377879
0.00408407
0.00435352
0.00449005
0.00453748
0.00454813
0.00454981
0.00455001
0.00454861
0.00455195
0.00455224
0.0045485
0.00430091
0.00439465
0.0044874
0.00453448
0.00454838
0.00455156
0.00454987
0.00454928
0.00455078
0.00455069
0.00454966
0.00453716
0.00454842
0.0045467
0.00454742
0.00454924
0.00454997
0.00455162
0.00454904
0.00453637
0.00444574
0.003973
0.00266646
0.000885033
0.0045515
0.00455077
0.00454822
0.00455125
0.00455292
0.00455208
0.00455146
0.00454528
0.00450708
0.00429683
0.00358455
0.00235084
0.00455205
0.00455283
0.00455182
0.00455252
0.00455387
0.00455304
0.00455035
0.00454921
0.00453688
0.00446204
0.00418231
0.00361769
0.00453583
0.0045484
0.00455217
0.00455295
0.00455336
0.00455266
0.00455007
0.00455131
0.00454904
0.00452652
0.00443791
0.00425141
0.00129841
0.00231509
0.00348915
0.00420275
0.00446046
0.00453127
0.00454827
0.00454742
0.00454564
0.00454659
0.00454769
0.0045474
0.00268384
0.00339493
0.00404632
0.00438921
0.00450986
0.00454334
0.00455151
0.00454986
0.00455002
0.00454948
0.00454788
0.00455023
0.00377581
0.00408591
0.00435582
0.00449016
0.0045379
0.00455018
0.00455091
0.00455077
0.00455168
0.00455079
0.00454836
0.00455235
0.00430062
0.00439721
0.00448807
0.00453371
0.00455028
0.0045542
0.00455372
0.00455324
0.00455119
0.00455038
0.00454648
0.00453883
0.00454836
0.00454997
0.00455114
0.00454879
0.00454777
0.00454708
0.00454596
0.00453379
0.00444426
0.00397469
0.00267049
0.00089218
0.00455068
0.00455019
0.00455075
0.00455008
0.00454866
0.00454807
0.00454885
0.00454298
0.00450516
0.00429692
0.00359053
0.00236782
0.00455443
0.00455254
0.00455183
0.00455316
0.00455166
0.00454923
0.00455196
0.00455095
0.00453493
0.00445971
0.00418466
0.00363239
0.00454002
0.00455143
0.00455561
0.00455642
0.00455621
0.00455331
0.00455387
0.00455443
0.00454888
0.00452324
0.00443762
0.0042574
0.00129501
0.00230888
0.00348133
0.00419843
0.00446127
0.00453299
0.00454937
0.00455061
0.00454938
0.00454742
0.00454685
0.0045491
0.00269524
0.00339381
0.00404261
0.00438641
0.00451062
0.00454572
0.00455153
0.00455035
0.00454926
0.00454887
0.00454859
0.00454803
0.00378767
0.00408713
0.00435448
0.0044877
0.00453747
0.00455305
0.00455295
0.00455111
0.00454843
0.00454815
0.00454987
0.00454756
0.00430551
0.00439776
0.00448698
0.00453212
0.00454983
0.00455392
0.00455237
0.00455194
0.00454977
0.00454929
0.00454688
0.00453359
0.00454686
0.00454784
0.00454883
0.00454695
0.00454593
0.00454569
0.00454631
0.00453632
0.0044452
0.003974
0.00267026
0.00089711
0.00454753
0.00455
0.00455045
0.00454814
0.00454615
0.00454535
0.00454673
0.00454401
0.00450639
0.00429683
0.00358699
0.00237306
0.00454586
0.00454948
0.00454994
0.00454964
0.00455008
0.00454957
0.0045498
0.0045488
0.00453475
0.00446009
0.00418266
0.00363093
0.00453215
0.00454921
0.00455452
0.00455475
0.00455506
0.00455339
0.00455201
0.00455154
0.00454738
0.00452417
0.00443702
0.00425551
0.00129291
0.00230079
0.00347942
0.00419688
0.00445919
0.00453075
0.00454788
0.00454698
0.0045462
0.0045476
0.00454736
0.00454907
0.00269616
0.00338998
0.0040409
0.00438602
0.00450924
0.00454425
0.00455156
0.0045489
0.00454631
0.00454949
0.00455236
0.00455209
0.00378623
0.00408628
0.00435258
0.00448883
0.00453811
0.00455054
0.00455239
0.00454966
0.00454768
0.00455139
0.00455212
0.00454889
0.00430414
0.00439785
0.00448659
0.00453436
0.00455239
0.0045551
0.00455235
0.00454951
0.00455094
0.00455137
0.00454805
0.00453505
0.00454959
0.00454857
0.00454707
0.00454747
0.00454708
0.0045478
0.00454791
0.00453645
0.00444603
0.00397339
0.00266745
0.000882676
0.00454995
0.00455058
0.00455192
0.00454929
0.0045471
0.00454814
0.00454938
0.00454542
0.00450819
0.00429806
0.00358896
0.00235555
0.00454646
0.00454769
0.00455092
0.00455026
0.00454792
0.00454592
0.00454719
0.0045483
0.0045369
0.00446254
0.00418422
0.00362175
0.00452945
0.00454409
0.00455167
0.00455184
0.0045532
0.00455161
0.00455206
0.00455005
0.00454664
0.00452573
0.00443963
0.00425354
0.00448135
0.00450975
0.00453697
0.00455074
0.00455508
0.0045558
0.00455507
0.0045549
0.00455514
0.00455262
0.00452733
0.00442933
0.00453663
0.00454498
0.00455277
0.00455646
0.00455765
0.0045579
0.00455757
0.00455729
0.00455596
0.00453803
0.00439113
0.00398572
0.00455273
0.00455559
0.00455786
0.00455889
0.00455916
0.00455931
0.00455926
0.00455893
0.0045526
0.004472
0.00397918
0.00296644
0.00455762
0.00455912
0.00455979
0.00456035
0.00456038
0.00456046
0.00456051
0.00455941
0.00453949
0.00432701
0.00326599
0.0015399
0.00441431
0.004508
0.00454593
0.00455457
0.0045561
0.00455649
0.00455592
0.00455628
0.00455556
0.00454835
0.00452098
0.00446908
0.00395073
0.00434673
0.00451381
0.00455091
0.00455722
0.00455834
0.00455822
0.00455846
0.00455824
0.00455606
0.00454837
0.0045348
0.00290745
0.00392884
0.00442705
0.00453892
0.00455689
0.00455945
0.00455955
0.00455977
0.00455975
0.00455901
0.00455698
0.00455334
0.00146218
0.00323785
0.00427673
0.00451839
0.00455536
0.00456017
0.00456057
0.00456078
0.00456079
0.00456046
0.00455995
0.00455881
0.00448151
0.00451063
0.00453703
0.00455037
0.00455504
0.0045562
0.00455609
0.00455577
0.0045553
0.00455255
0.00452657
0.00442908
0.00453672
0.00454516
0.00455259
0.00455628
0.00455739
0.00455781
0.00455778
0.00455766
0.00455617
0.004538
0.00439049
0.00398256
0.00455278
0.00455569
0.00455781
0.00455881
0.00455899
0.00455918
0.00455916
0.0045589
0.00455243
0.00447174
0.00397737
0.00295672
0.00455763
0.00455926
0.00456002
0.00456021
0.00456019
0.00456035
0.00456033
0.00455927
0.00453918
0.00432664
0.00326255
0.00152232
0.00441569
0.00450917
0.00454721
0.00455576
0.0045571
0.00455688
0.00455694
0.0045563
0.00455458
0.00454688
0.00452067
0.00447088
0.00395413
0.00434761
0.00451418
0.00455124
0.00455759
0.00455827
0.00455847
0.00455837
0.00455776
0.00455569
0.00454831
0.00453543
0.00292353
0.00393195
0.00442741
0.00453901
0.00455697
0.00455927
0.00455967
0.00455985
0.00455954
0.00455904
0.00455701
0.00455364
0.00149208
0.00324288
0.00427723
0.00451851
0.00455545
0.00456007
0.00456064
0.00456086
0.00456069
0.00456062
0.00456004
0.004559
0.00448293
0.00451068
0.00453632
0.00454965
0.00455511
0.00455615
0.00455603
0.00455575
0.00455513
0.00455233
0.00452671
0.00442839
0.00453693
0.00454509
0.00455209
0.00455584
0.00455767
0.00455789
0.00455797
0.00455777
0.00455616
0.0045381
0.00439123
0.00398591
0.00455267
0.00455545
0.00455738
0.00455839
0.00455922
0.00455927
0.00455932
0.00455901
0.00455261
0.00447201
0.00397916
0.00296915
0.00455753
0.00455905
0.00455969
0.00455995
0.00456037
0.00456037
0.00456036
0.00455935
0.00453942
0.00432684
0.00326584
0.00154434
0.00441323
0.00450832
0.00454662
0.00455495
0.00455627
0.00455594
0.00455573
0.00455608
0.00455492
0.00454738
0.00452014
0.00446986
0.00395068
0.00434708
0.00451408
0.00455097
0.00455713
0.00455784
0.00455792
0.00455819
0.00455799
0.00455576
0.00454792
0.00453499
0.00290376
0.00392872
0.00442729
0.00453893
0.00455686
0.00455925
0.00455947
0.00455954
0.00455957
0.00455893
0.0045568
0.00455344
0.00145357
0.0032366
0.00427705
0.00451846
0.00455539
0.00456014
0.0045606
0.00456079
0.00456071
0.00456052
0.00455991
0.00455887
0.00448233
0.00451075
0.00453652
0.00455043
0.00455564
0.00455638
0.00455572
0.00455508
0.00455526
0.00455253
0.00452706
0.00442836
0.0045368
0.00454527
0.00455252
0.00455619
0.00455782
0.00455797
0.00455784
0.00455756
0.00455614
0.0045381
0.0043911
0.0039837
0.0045527
0.0045558
0.00455776
0.00455848
0.00455915
0.00455932
0.00455928
0.0045589
0.0045526
0.00447215
0.00397876
0.00296037
0.00455755
0.00455938
0.0045599
0.00455987
0.00456024
0.00456044
0.00456044
0.0045593
0.00453941
0.00432731
0.00326614
0.00152616
0.00441295
0.00450658
0.00454572
0.00455436
0.00455595
0.0045556
0.00455559
0.00455504
0.00455485
0.00454833
0.00452165
0.00446962
0.00395531
0.00434709
0.00451364
0.00455076
0.00455712
0.00455787
0.00455805
0.00455801
0.00455791
0.00455616
0.00454852
0.004535
0.00293097
0.00393323
0.00442746
0.00453887
0.00455689
0.00455923
0.00455953
0.00455959
0.00455939
0.00455901
0.00455701
0.00455356
0.00150369
0.00324575
0.00427768
0.0045185
0.00455544
0.00456014
0.00456067
0.00456081
0.00456051
0.0045605
0.00456002
0.004559
0.00455958
0.00456083
0.00456114
0.00456142
0.00456139
0.00456141
0.00456151
0.00455927
0.00452206
0.00416068
0.00248008
0.000333655
0.00456078
0.00456204
0.0045624
0.00456251
0.00456243
0.00456233
0.00456241
0.00455964
0.00451574
0.004106
0.00233282
0.000275251
0.00456178
0.004563
0.00456334
0.00456342
0.00456331
0.0045632
0.00456325
0.00456054
0.00451773
0.00411393
0.00234844
0.000274554
0.00456264
0.0045639
0.0045641
0.00456413
0.00456405
0.004564
0.00456404
0.00456169
0.00452316
0.00414564
0.00241371
0.000284857
0.00456345
0.00456466
0.00456482
0.00456481
0.00456472
0.00456473
0.00456473
0.0045628
0.0045292
0.00418295
0.00249215
0.000296436
0.00455842
0.00455825
0.00455811
0.00455804
0.00455797
0.00455804
0.00455804
0.00455649
0.00452762
0.00421252
0.00256909
0.00030908
0.00450644
0.00450171
0.00450072
0.00450047
0.0045004
0.00450049
0.0045005
0.00449933
0.00447475
0.00419161
0.00262212
0.000321719
0.00422527
0.0042052
0.00420163
0.00420062
0.00420047
0.00420042
0.00420068
0.00420013
0.00418076
0.00394556
0.00256573
0.000331794
0.00342461
0.0033996
0.0033944
0.00339225
0.00339194
0.00339167
0.00339238
0.00339269
0.00338092
0.00322628
0.00225191
0.000332466
0.00220663
0.00219223
0.00218817
0.00218671
0.00218681
0.00218629
0.00218841
0.00218859
0.00218519
0.0021213
0.00164636
0.000313284
0.000927911
0.000916249
0.000914365
0.00091282
0.000914005
0.000912494
0.000914855
0.000914325
0.000914872
0.000901114
0.000775544
0.000265822
9.54305e-05
9.49976e-05
9.47271e-05
9.43938e-05
9.40623e-05
9.37023e-05
9.33905e-05
9.31239e-05
9.28919e-05
9.22797e-05
8.68302e-05
6.20333e-05
0.000328492
0.0025033
0.00411479
0.00449752
0.00455395
0.00456088
0.0045616
0.00456177
0.0045618
0.00456153
0.00456139
0.00456083
0.000276379
0.00234713
0.00405836
0.0044898
0.00455395
0.00456174
0.00456261
0.00456267
0.00456265
0.00456234
0.00456228
0.00456199
0.000276846
0.00235356
0.00406441
0.00449229
0.00455509
0.00456264
0.00456345
0.00456344
0.00456336
0.00456317
0.00456321
0.00456299
0.00028719
0.00241049
0.00409556
0.00449945
0.00455684
0.00456349
0.00456419
0.00456422
0.00456414
0.00456409
0.00456409
0.00456383
0.000298646
0.00248205
0.0041335
0.00450775
0.00455865
0.00456425
0.00456484
0.00456494
0.00456488
0.00456485
0.00456485
0.00456457
0.00031068
0.00255463
0.00416504
0.00450864
0.0045532
0.00455785
0.00455835
0.00455849
0.00455842
0.00455836
0.0045583
0.00455805
0.00032348
0.00260676
0.00414836
0.00445858
0.00449712
0.00450106
0.00450152
0.00450165
0.00450161
0.00450154
0.00450142
0.00450159
0.000334121
0.00255653
0.00391257
0.00416974
0.00420103
0.00420454
0.00420527
0.00420547
0.0042055
0.00420528
0.00420487
0.00420553
0.000334411
0.00224754
0.0032079
0.00337741
0.00339819
0.00340121
0.0034023
0.00340276
0.00340284
0.00340235
0.0034013
0.00340309
0.000315355
0.00164047
0.00211376
0.00218677
0.00219669
0.00219848
0.00219953
0.00220005
0.00219947
0.00219855
0.00219881
0.00219864
0.000267044
0.000776468
0.000900626
0.000917189
0.000920671
0.000921122
0.000921994
0.000921867
0.000921523
0.000920728
0.000921617
0.000920274
6.21217e-05
8.69092e-05
9.21741e-05
9.27781e-05
9.29079e-05
9.31096e-05
9.34093e-05
9.35987e-05
9.38486e-05
9.3952e-05
9.40136e-05
9.41074e-05
0.00455961
0.00456089
0.00456128
0.00456132
0.00456127
0.0045614
0.00456136
0.00455908
0.00452179
0.00416067
0.00247851
0.000329714
0.00456075
0.00456197
0.00456231
0.00456234
0.0045622
0.00456229
0.00456228
0.00455947
0.00451559
0.00410613
0.00233178
0.000274802
0.00456169
0.00456289
0.00456311
0.00456322
0.00456311
0.00456314
0.00456319
0.00456046
0.00451767
0.00411428
0.00234927
0.000275652
0.00456258
0.0045637
0.00456378
0.00456391
0.00456395
0.00456401
0.00456403
0.00456164
0.00452315
0.00414613
0.00241542
0.000285284
0.00456336
0.00456443
0.00456452
0.00456462
0.00456469
0.00456478
0.00456473
0.00456274
0.0045292
0.00418347
0.00249421
0.000297041
0.0045583
0.00455806
0.00455793
0.00455786
0.00455792
0.00455801
0.00455797
0.0045564
0.00452759
0.00421301
0.00257126
0.000309558
0.0045063
0.00450151
0.00450057
0.00450032
0.00450025
0.00450029
0.00450031
0.00449914
0.00447463
0.00419198
0.00262432
0.000322782
0.00422496
0.00420465
0.00420098
0.00420028
0.00419975
0.00419981
0.00420006
0.00419962
0.00418028
0.00394548
0.00256739
0.000333199
0.00342372
0.00339833
0.00339295
0.00339171
0.00339052
0.00339075
0.00339121
0.00339183
0.00337997
0.00322552
0.00225242
0.000332658
0.00220614
0.00219211
0.00218858
0.00218701
0.00218578
0.00218659
0.00218707
0.00218883
0.00218462
0.00212118
0.00164604
0.000312267
0.000926891
0.000915778
0.000914601
0.000913925
0.000912104
0.000913317
0.000913411
0.000915408
0.000914774
0.000901842
0.000774804
0.000264037
9.46916e-05
9.3959e-05
9.36244e-05
9.33878e-05
9.31155e-05
9.30274e-05
9.28301e-05
9.27591e-05
9.26362e-05
9.21295e-05
8.6731e-05
6.20552e-05
0.000329499
0.00250268
0.00411489
0.00449756
0.004554
0.0045608
0.00456163
0.00456175
0.00456157
0.00456164
0.00456154
0.00456104
0.000274684
0.00234565
0.00405804
0.00448976
0.00455398
0.00456167
0.00456256
0.00456258
0.00456249
0.00456261
0.00456257
0.00456221
0.000275037
0.00235195
0.00406396
0.00449224
0.00455511
0.00456262
0.00456339
0.00456343
0.00456342
0.00456357
0.00456352
0.00456315
0.000285024
0.00240887
0.0040951
0.0044994
0.00455681
0.00456356
0.0045642
0.0045642
0.00456417
0.00456438
0.00456437
0.00456401
0.000296767
0.00248056
0.00413307
0.00450769
0.00455861
0.00456438
0.00456495
0.00456485
0.00456487
0.00456501
0.00456498
0.00456469
0.000309109
0.00255323
0.00416464
0.00450856
0.00455313
0.00455798
0.00455848
0.00455833
0.00455841
0.00455848
0.0045584
0.00455814
0.000321567
0.00260516
0.00414801
0.00445853
0.00449707
0.00450118
0.00450159
0.0045015
0.00450163
0.00450153
0.00450139
0.00450165
0.000331944
0.00255497
0.00391258
0.00416991
0.00420117
0.00420476
0.00420537
0.00420549
0.00420564
0.00420548
0.00420504
0.00420576
0.000333403
0.00224702
0.00320874
0.00337804
0.00339866
0.00340161
0.00340254
0.00340289
0.00340308
0.00340282
0.00340182
0.00340366
0.000315447
0.00164189
0.00211578
0.0021882
0.0021972
0.00219881
0.00220019
0.00220035
0.00219955
0.00219873
0.0021994
0.00219922
0.000267314
0.000779136
0.000902318
0.000918361
0.000920669
0.000920924
0.000922465
0.000922228
0.000921486
0.000921119
0.000922201
0.000920598
6.19168e-05
8.65955e-05
9.18478e-05
9.24961e-05
9.27716e-05
9.29437e-05
9.32749e-05
9.34883e-05
9.38072e-05
9.43914e-05
9.48335e-05
9.46001e-05
0.00455954
0.00456082
0.00456114
0.00456112
0.00456133
0.00456135
0.00456138
0.0045592
0.00452195
0.0041603
0.00247894
0.000334925
0.00456074
0.00456195
0.00456218
0.00456209
0.00456228
0.00456231
0.00456234
0.00455964
0.0045157
0.0041056
0.00233157
0.000275997
0.00456175
0.00456293
0.0045631
0.00456302
0.00456317
0.00456325
0.00456324
0.00456061
0.00451773
0.00411358
0.0023472
0.000275243
0.0045626
0.00456382
0.00456398
0.00456401
0.00456401
0.00456406
0.00456406
0.00456179
0.00452318
0.00414534
0.00241269
0.000286159
0.00456336
0.00456454
0.00456472
0.00456479
0.00456469
0.00456472
0.00456476
0.00456288
0.00452922
0.0041827
0.00249111
0.000297297
0.00455833
0.00455816
0.00455809
0.00455808
0.00455797
0.00455797
0.00455806
0.00455654
0.00452763
0.00421231
0.0025681
0.000309856
0.00450641
0.00450164
0.00450072
0.00450053
0.00450042
0.00450043
0.00450053
0.00449935
0.00447475
0.00419144
0.00262106
0.000321641
0.00422533
0.00420517
0.00420172
0.00420084
0.00420052
0.00420046
0.00420073
0.00420018
0.00418082
0.00394552
0.00256491
0.000331622
0.0034245
0.00339949
0.00339428
0.00339252
0.00339207
0.00339181
0.0033924
0.00339284
0.00338111
0.0032265
0.0022517
0.000332024
0.00220634
0.00219258
0.00218804
0.00218745
0.002187
0.00218681
0.0021881
0.002189
0.00218551
0.00212216
0.00164689
0.000313529
0.000927194
0.000916455
0.000913665
0.000913241
0.000913346
0.000912794
0.000914218
0.00091475
0.000915096
0.0009023
0.000776647
0.000266185
9.51351e-05
9.46538e-05
9.43624e-05
9.39945e-05
9.34203e-05
9.30617e-05
9.30065e-05
9.27797e-05
9.25886e-05
9.20653e-05
8.66785e-05
6.18182e-05
0.000328334
0.00250321
0.00411551
0.00449758
0.00455397
0.0045609
0.00456159
0.00456186
0.00456162
0.00456155
0.00456136
0.00456089
0.000276894
0.0023475