/*--------------------------------*- C++ -*----------------------------------*\
  =========                 |
  \\      /  F ield         | OpenFOAM: The Open Source CFD Toolbox
   \\    /   O peration     | Website:  https://openfoam.org
    \\  /    A nd           | Version:  6
     \\/     M anipulation  |
\*---------------------------------------------------------------------------*/
FoamFile
{
    version     2.0;
    format      ascii;
    class       volScalarField;
    location    "1500";
    object      p;
}
// * * * * * * * * * * * * * * * * * * * * * * * * * * * * * * * * * * * * * //

dimensions      [0 2 -2 0 0 0 0];

internalField   nonuniform List<scalar> 
3072
(
0.998999
1.0872
1.3054
1.58038
1.90163
2.23852
2.60146
2.96548
3.34802
3.72573
4.11529
4.49432
0.889103
1.05915
1.27034
1.51793
1.84946
2.2146
2.59584
2.97636
3.36468
3.75007
4.14022
4.52428
0.67959
0.947082
1.15973
1.38249
1.72053
2.11758
2.52948
2.93654
3.34065
3.73844
4.13437
4.52501
0.517261
0.837851
1.0586
1.28973
1.64582
2.06579
2.49816
2.9213
3.33492
3.73787
4.13481
4.52532
0.421529
0.782914
1.00875
1.26375
1.64469
2.08098
2.52197
2.94846
3.36089
3.75946
4.14974
4.53242
0.384131
0.769952
1.01085
1.29722
1.70043
2.14801
2.5873
3.00985
3.41137
3.80023
4.17602
4.54736
0.3801
0.797841
1.0675
1.38672
1.81213
2.25894
2.69221
3.09844
3.48602
3.85463
4.21488
4.56592
0.41341
0.876164
1.18153
1.53861
1.97533
2.4155
2.82928
3.21473
3.57741
3.92384
4.26002
4.59027
0.475538
0.997056
1.35569
1.74959
2.18817
2.6084
2.99416
3.34957
3.68282
4.00138
4.31125
4.61678
0.589465
1.1912
1.60755
2.02486
2.44595
2.83125
3.17822
3.49683
3.79608
4.08392
4.36546
4.64496
0.812674
1.50924
1.96357
2.36773
2.74163
3.0735
3.37204
3.6485
3.91144
4.16708
4.42018
4.67318
1.3285
2.05021
2.45808
2.77502
3.06186
3.3229
3.56607
3.79804
4.02402
4.24797
4.4732
4.70062
4.88125
5.25606
5.63434
5.998
6.36124
6.70896
7.05348
7.38339
7.69661
7.93276
8.12601
8.31898
4.91052
5.28942
5.66772
6.03674
6.40356
6.76264
7.12103
7.47138
7.7904
8.02431
8.22741
8.44013
4.91454
5.29957
5.68341
6.06344
6.44397
6.82505
7.21066
7.59313
7.93125
8.15792
8.36527
8.64773
4.91336
5.29833
5.68371
6.06887
6.45843
6.85342
7.25819
7.66448
8.03096
8.2803
8.5123
8.83182
4.91264
5.29051
5.6703
6.05245
6.44117
6.83908
7.24994
7.66997
8.06308
8.34682
8.59913
8.96554
4.91294
5.28018
5.6475
6.02082
6.40037
6.7924
7.19929
7.62323
8.03254
8.34195
8.59896
9.0133
4.91649
5.26469
5.61754
5.9732
6.33877
6.71463
7.11062
7.52497
7.93606
8.26574
8.53962
8.97379
4.91836
5.24667
5.57706
5.91231
6.25411
6.6091
6.98108
7.37705
7.78563
8.1296
8.41429
8.86722
4.9209
5.22505
5.53091
5.83949
6.15419
6.47907
6.82225
7.1909
7.57717
7.93202
8.23552
8.69345
4.92361
5.20222
5.48107
5.76059
6.0439
6.33457
6.6409
6.97083
7.33039
7.67186
7.97131
8.44141
4.92647
5.17913
5.43016
5.67982
5.92959
6.18355
6.44801
6.73107
7.0367
7.34767
7.61906
8.02975
4.92938
5.15669
5.38045
5.60051
5.81714
6.03382
6.25318
6.48078
6.72083
6.95478
7.14102
7.42343
0.0996066
0.227786
0.514586
0.85461
1.24502
1.6435
2.06193
2.47314
2.89701
3.30779
3.7226
4.12137
0.0797555
0.322548
0.550141
0.837789
1.22371
1.64452
2.07849
2.50474
2.93164
3.34831
3.7633
4.16698
0.0231689
0.330395
0.547515
0.799281
1.18084
1.62425
2.08106
2.52765
2.96563
3.39118
3.80991
4.21884
-0.0136988
0.324448
0.547967
0.807207
1.20407
1.66619
2.13836
2.59605
3.03941
3.46675
3.88418
4.29114
-0.0222016
0.340438
0.576188
0.862446
1.27999
1.76029
2.23495
2.69687
3.13349
3.55791
3.96407
4.36544
-0.00648493
0.382991
0.641257
0.953898
1.40133
1.88144
2.36174
2.80945
3.24275
3.6484
4.04806
4.42896
0.0440172
0.467949
0.75051
1.09883
1.55714
2.04289
2.5069
2.94536
3.35619
3.74939
4.12527
4.49319
0.115201
0.579298
0.903578
1.29148
1.76249
2.23675
2.68203
3.0961
3.48387
3.8523
4.20586
4.54988
0.202844
0.727064
1.11224
1.53666
2.00945
2.46251
2.87829
3.26103
3.61881
3.95851
4.28508
4.60291
0.318194
0.938248
1.38473
1.84005
2.297
2.71411
3.08987
3.43427
3.75721
4.06481
4.36208
4.65181
0.551194
1.27615
1.76697
2.20925
2.61983
2.98293
3.30851
3.60944
3.89427
4.16853
4.43529
4.6965
1.08306
1.84388
2.28609
2.64481
2.9674
3.25786
3.52609
3.78061
4.02662
4.26739
4.504
4.73712
4.52499
4.91492
5.30652
5.68289
6.06078
6.42426
6.78734
7.13667
7.47038
7.72143
7.92514
8.11612
4.56912
4.96208
5.3535
5.73541
6.1167
6.49181
6.86885
7.2398
7.58191
7.8376
8.05484
8.26493
4.62354
5.0216
5.41792
5.80987
6.20408
6.59997
7.00387
7.40718
7.7699
8.01828
8.238
8.51888
4.6934
5.09037
5.48693
5.88307
6.28417
6.69268
7.11359
7.53904
7.92747
8.19433
8.4365
8.7499
4.75576
5.14777
5.53511
5.92922
6.32548
6.73729
7.15833
7.59823
8.00756
8.30801
8.57066
8.92983
4.81231
5.18488
5.56629
5.94297
6.3354
6.73101
7.15367
7.58623
8.01392
8.33847
8.60174
9.01315
4.85294
5.21281
5.57123
5.93551
6.30486
6.68957
7.09064
7.51811
7.94264
8.27856
8.56199
8.9921
4.88808
5.22408
5.5605
5.89938
6.24572
6.60367
6.98281
7.38552
7.80014
8.15808
8.43696
8.89179
4.91529
5.22515
5.53372
5.84415
6.15948
6.48662
6.83231
7.20523
7.59939
7.95137
8.2631
8.71716
4.93666
5.21794
5.4965
5.77492
6.056
6.34668
6.65303
6.98492
7.34379
7.69617
7.99068
8.46525
4.95318
5.20522
5.45307
5.69804
5.94364
6.19433
6.45663
6.73882
7.04699
7.35535
7.64031
8.05599
4.96609
5.18937
5.40689
5.61917
5.82937
6.0399
6.25557
6.47955
6.71733
6.96173
7.15868
7.45269
1.0413
1.12987
1.34981
1.62714
1.95179
2.29259
2.66016
3.0281
3.41373
3.79494
4.18989
4.57478
0.928423
1.09879
1.31205
1.56269
1.89802
2.26725
2.65296
3.03785
3.43038
3.81994
4.21501
4.60454
0.713916
0.981592
1.19607
1.42222
1.76467
2.16651
2.58337
2.99537
3.40439
3.80718
4.20849
4.60479
0.54657
0.866689
1.08894
1.3236
1.68452
2.10987
2.5478
2.97648
3.39572
3.80438
4.20733
4.60402
0.445416
0.806295
1.03397
1.29258
1.67859
2.12066
2.56766
3.00018
3.41874
3.82357
4.22037
4.60978
0.402752
0.789107
1.03184
1.32175
1.73012
2.18385
2.62943
3.05846
3.46641
3.86202
4.24469
4.62332
0.394147
0.813005
1.0845
1.40709
1.83798
2.29112
2.73114
3.14408
3.53856
3.91413
4.28177
4.64041
0.423311
0.887415
1.19441
1.55487
1.99734
2.4443
2.86512
3.2577
3.62756
3.98134
4.32522
4.66352
0.481918
1.00409
1.36404
1.76159
2.2065
2.63397
3.02714
3.39003
3.73079
4.05704
4.37491
4.68884
0.591741
1.19311
1.61093
2.03268
2.46084
2.85381
3.20856
3.53497
3.84203
4.13786
4.42766
4.71589
0.81007
1.50537
1.96195
2.37174
2.75335
3.0933
3.39999
3.68453
3.95554
4.21936
4.48097
4.74296
1.31721
2.03919
2.45105
2.77535
3.07058
3.34019
3.59184
3.83213
4.06634
4.29862
4.53259
4.76924
4.96696
5.34631
5.73052
6.10102
6.47027
6.82285
7.17226
7.50666
7.82392
8.06327
8.25866
8.4523
4.99639
5.38055
5.76439
6.13954
6.51257
6.8771
7.24067
7.59598
7.9198
8.15794
8.36375
8.57646
5.00018
5.39109
5.78092
6.16714
6.55401
6.94123
7.33292
7.72139
8.0654
8.29688
8.50686
8.7899
4.99846
5.38994
5.78198
6.17389
6.57032
6.9722
7.38395
7.79727
8.17054
8.4251
8.66003
8.97986
4.99697
5.38194
5.769
6.1585
6.5547
6.96022
7.37889
7.80689
8.20783
8.49775
8.75371
9.12038
4.9963
5.37123
5.74629
6.12756
6.5151
6.91542
7.33076
7.76355
8.18165
8.49833
8.75916
9.17457
4.99896
5.35522
5.71637
6.08038
6.45454
6.83916
7.24434
7.66828
8.08929
8.42724
8.70555
9.14145
4.99997
5.33682
5.67592
6.01998
6.37082
6.7351
7.11691
7.52332
7.94261
8.29603
8.58508
9.04116
5.00172
5.31483
5.62978
5.94758
6.2717
6.60638
6.95995
7.33976
7.73799
8.10364
8.4121
8.87309
5.00362
5.29156
5.57981
5.86891
6.16197
6.46286
6.7801
7.12201
7.4945
7.84923
8.15526
8.6281
5.00562
5.26789
5.52862
5.78809
6.04788
6.31236
6.58815
6.88389
7.20404
7.53042
7.8117
8.22698
5.00766
5.24479
5.47848
5.70849
5.93531
6.16263
6.39362
6.63435
6.88986
7.14192
7.34454
7.63721
1.3289
1.41926
1.63888
1.9155
2.23618
2.57181
2.92779
3.28011
3.64382
4.00121
4.36758
4.72425
1.21818
1.39077
1.60361
1.85299
2.18427
2.54723
2.92196
3.29159
3.66267
4.02759
4.39469
4.75577
1.00718
1.27615
1.49033
1.71485
2.05352
2.4484
2.8547
3.25172
3.64124
4.02101
4.39689
4.76658
0.83945
1.16102
1.38362
1.61784
1.97585
2.39537
2.82367
3.23882
3.64071
4.029
4.40941
4.78223
0.737022
1.09851
1.32615
1.58616
1.96799
2.40844
2.84459
3.26814
3.66904
4.05874
4.43308
4.804
0.687745
1.07468
1.32082
1.60791
2.01984
2.46445
2.9082
3.32239
3.72249
4.09806
4.46836
4.82301
0.680739
1.10141
1.37089
1.69229
2.11773
2.56929
3.00055
3.40754
3.78896
4.1542
4.5042
4.84781
0.700935
1.16701
1.4731
1.83258
2.27132
2.71347
3.12832
3.51368
3.87459
4.21774
4.5478
4.86993
0.758529
1.28165
1.6403
2.03207
2.47198
2.8943
3.28176
3.63826
3.97164
4.28851
4.59383
4.89186
0.862463
1.46373
1.87623
2.29439
2.71743
3.10503
3.45449
3.77508
4.07592
4.36298
4.64098
4.91283
1.07764
1.76793
2.22064
2.62375
3.00083
3.33615
3.63777
3.91722
4.18222
4.43792
4.68725
4.93224
1.57434
2.29087
2.69585
3.01838
3.31055
3.57618
3.82322
4.05862
4.28695
4.5109
4.73172
4.95015
5.08682
5.439
5.79509
6.13954
6.48863
6.82912
7.17155
7.50171
7.81864
8.05885
8.25457
8.44706
5.11815
5.47442
5.83158
6.18263
6.53577
6.88677
7.24274
7.59463
7.91923
8.16059
8.36946
8.58062
5.13494
5.49951
5.86484
6.22864
6.59723
6.97036
7.35371
7.73806
8.08315
8.31764
8.53005
8.81177
5.15259
5.52032
5.88977
6.26131
6.63989
7.02822
7.43061
7.83907
8.21192
8.46705
8.7032
9.01916
5.1668
5.53268
5.89664
6.26878
6.64576
7.03951
7.44481
7.86958
8.26563
8.55553
8.81197
9.17376
5.18096
5.53106
5.89089
6.24893
6.62366
7.00438
7.41278
7.83309
8.24915
8.56426
8.82042
9.23364
5.18528
5.52433
5.864
6.21115
6.56557
6.93688
7.3264
7.74342
8.15891
8.48733
8.76572
9.19347
5.18786
5.50516
5.82464
6.14848
6.48163
6.82822
7.19755
7.59196
7.99962
8.35251
8.62936
9.08023
5.1859
5.47889
5.77232
6.06942
6.37329
6.69063
7.02809
7.39428
7.78335
8.13208
8.44319
8.89552
5.18108
5.4472
5.71228
5.97892
6.25
6.53217
6.83146
7.15773
7.51263
7.86321
8.15799
8.63196
5.174
5.41253
5.64841
5.88304
6.11983
6.36304
6.61907
6.89625
7.20099
7.50803
7.79359
8.20948
5.16574
5.37704
5.58398
5.78718
5.98958
6.19344
6.40336
6.6226
6.85676
7.09908
7.29573
7.5894
3.1038
2.88816
3.04334
3.20083
3.37709
3.56191
3.7496
3.93863
4.12948
4.32373
4.52279
4.7265
4.17878
3.60529
3.52748
3.56387
3.65425
3.77582
3.9153
4.06617
4.22548
4.39283
4.56809
4.75021
4.58843
4.06099
3.88692
3.85075
3.88343
3.95791
4.05897
4.17793
4.31023
4.45405
4.60851
4.77154
4.76112
4.34007
4.1457
4.07238
4.06869
4.1098
4.1814
4.27444
4.38398
4.50777
4.64395
4.78962
4.9325
5.13578
5.33389
5.52576
5.71172
5.89272
6.0695
6.24086
6.39865
6.52228
6.51751
6.12145
4.93604
5.11717
5.29147
5.45773
5.61609
5.76571
5.9056
6.03049
6.12976
6.17431
6.10259
5.76619
4.9406
5.10155
5.2541
5.3979
5.53217
5.65572
5.76601
5.85686
5.91581
5.92127
5.82439
5.5043
4.94744
5.08941
5.22231
5.34648
5.46022
5.56228
5.6493
5.71572
5.75023
5.73262
5.62815
5.34594
2.91457
2.71978
2.90866
3.10161
3.31025
3.52189
3.73242
3.94175
4.15071
4.35942
4.56747
4.77368
4.04591
3.47975
3.42712
3.49574
3.61468
3.76026
3.92025
4.08919
4.26443
4.44384
4.62536
4.80668
4.49951
3.97581
3.823
3.81238
3.87002
3.966
4.08539
4.22037
4.36636
4.52001
4.6779
4.83645
4.7102
4.29142
4.11218
4.06164
4.08001
4.14044
4.22843
4.33563
4.45694
4.5885
4.72554
4.86353
4.97645
5.1725
5.36097
5.54281
5.71947
5.89258
6.06269
6.22894
6.38586
6.51285
6.53075
6.16861
4.98537
5.15581
5.31748
5.4715
5.61817
5.75809
5.88916
6.00729
6.10201
6.1539
6.09963
5.79441
4.994
5.14052
5.27796
5.40717
5.52813
5.63993
5.73987
5.82202
5.87577
5.88244
5.80248
5.5081
5.00357
5.12743
5.24295
5.35059
5.44967
5.53834
5.61385
5.66992
5.69723
5.68014
5.58547
5.32384
3.0664
2.86693
3.03079
3.19757
3.38311
3.57694
3.77335
3.97087
4.17008
4.37281
4.5808
4.79397
4.12888
3.57505
3.51026
3.55759
3.65793
3.78881
3.93719
4.09666
4.26441
4.44037
4.62468
4.81649
4.53719
4.02756
3.86701
3.84223
3.88516
3.96913
4.07918
4.20677
4.34754
4.49998
4.66369
4.83666
4.71186
4.30599
4.12442
4.06233
4.06886
4.11947
4.20005
4.30171
4.41967
4.5521
4.6976
4.85321
5.00982
5.22314
5.43133
5.63324
5.82937
6.02099
6.20933
6.39387
6.56763
6.7108
6.73028
6.3687
5.01241
5.20381
5.38828
5.56459
5.73296
5.89298
6.04409
6.18175
6.29624
6.36017
6.31366
6.0109
5.01597
5.18739
5.35022
5.50399
5.64803
5.78155
5.90246
6.00521
6.07816
6.1006
6.02586
5.73324
5.02201
5.17468
5.31786
5.45178
5.57496
5.68642
5.7833
5.86046
5.9072
5.9042
5.81725
5.55565
3.30479
3.10576
3.26923
3.43362
3.61735
3.80805
4.0003
4.19288
4.38602
4.57954
4.77312
4.96597
4.35907
3.80576
3.73989
3.78884
3.88876
4.01737
4.16187
4.31629
4.4774
4.64297
4.8111
4.98029
4.76565
4.25412
4.09504
4.07124
4.11475
4.19715
4.30356
4.42593
4.55927
4.70011
4.84538
4.99239
4.94201
4.53277
4.35059
4.29137
4.29923
4.34879
4.426
4.5222
4.63211
4.75157
4.87628
5.00348
5.15689
5.34241
5.52169
5.69555
5.86529
6.03234
6.19707
6.35854
6.51127
6.6347
6.64897
6.27613
5.14838
5.30969
5.46345
5.61054
5.75108
5.88545
6.01141
6.12466
6.2146
6.26149
6.20067
5.88172
5.14085
5.2797
5.4105
5.5338
5.64935
5.75608
5.85114
5.9284
5.97698
5.97781
5.88994
5.58317
5.13523
5.25304
5.36329
5.46604
5.56039
5.64447
5.71534
5.76658
5.78856
5.76526
5.6627
5.38977
4.84293
4.51522
4.33043
4.24233
4.21735
4.2358
4.28527
4.35764
4.44829
4.55511
4.67531
4.80557
4.88058
4.62644
4.4632
4.37354
4.3374
4.34075
4.3736
4.42928
4.504
4.59621
4.70236
4.81465
4.90142
4.701
4.56
4.47427
4.43281
4.42603
4.44635
4.48848
4.54949
4.62853
4.71941
4.81377
4.91405
4.75281
4.63164
4.55207
4.50874
4.49521
4.506
4.53682
4.58527
4.65025
4.7217
4.78976
4.95874
5.08228
5.19781
5.3051
5.40183
5.48622
5.55535
5.60385
5.62179
5.59342
5.48927
5.25254
4.97794
5.08122
5.18059
5.27327
5.35556
5.4254
5.48045
5.51566
5.52278
5.4877
5.38949
5.19394
5.00429
5.08667
5.16971
5.24924
5.31891
5.37679
5.42059
5.44597
5.44579
5.40894
5.31919
5.15884
5.04304
5.10261
5.16594
5.23195
5.29002
5.33763
5.37228
5.39031
5.38553
5.34899
5.26984
5.1385
4.82413
4.49767
4.32615
4.25708
4.25181
4.28776
4.35207
4.43701
4.53789
4.65083
4.77041
4.88943
4.88878
4.63612
4.48382
4.41154
4.39329
4.41266
4.45904
4.52603
4.60979
4.70734
4.81215
4.91195
4.93276
4.73429
4.60365
4.53349
4.5085
4.51654
4.54937
4.60184
4.67113
4.75531
4.84613
4.92874
4.96512
4.80695
4.69544
4.63052
4.60251
4.60286
4.62527
4.66568
4.72194
4.7925
4.86587
4.92789
5.01605
5.11803
5.21418
5.30372
5.38445
5.45453
5.51091
5.54811
5.55763
5.52628
5.42941
5.20766
5.03318
5.11283
5.1918
5.26599
5.33138
5.38629
5.42775
5.45102
5.44847
5.40924
5.31414
5.12931
5.05207
5.11193
5.175
5.23568
5.28814
5.33054
5.36037
5.37322
5.36267
5.3197
5.23086
5.07765
5.07575
5.11942
5.16471
5.21199
5.25282
5.28467
5.3052
5.31037
5.29473
5.25107
5.17026
5.04276
4.79671
4.48178
4.30874
4.23138
4.21636
4.24416
4.30252
4.38341
4.48238
4.59776
4.72713
4.86769
4.83726
4.59416
4.44161
4.36209
4.33554
4.348
4.38956
4.45361
4.5365
4.63708
4.75213
4.87387
4.86095
4.67012
4.53885
4.46261
4.43033
4.43234
4.46115
4.51142
4.58041
4.66751
4.76632
4.86938
4.87601
4.72334
4.61104
4.54037
4.50575
4.5007
4.51968
4.55841
4.6146
4.68726
4.76574
4.83925
5.03265
5.16714
5.29286
5.40959
5.51527
5.60842
5.68651
5.74448
5.77289
5.75622
5.66585
5.44412
5.05237
5.16631
5.27541
5.37709
5.46772
5.54563
5.60866
5.6521
5.66786
5.64226
5.55429
5.36951
5.08048
5.1725
5.26448
5.35239
5.42978
5.49492
5.54577
5.57812
5.58501
5.55535
5.47339
5.32075
5.12384
5.18994
5.26095
5.33462
5.39971
5.45377
5.49454
5.5184
5.51921
5.4882
5.41452
5.2886
5.02972
4.71024
4.53754
4.46233
4.449
4.4762
4.53142
4.60675
4.6972
4.7985
4.90579
5.01333
5.07375
4.82605
4.67299
4.59625
4.57166
4.5839
4.62257
4.68117
4.7553
4.84152
4.93334
5.02207
5.10098
4.90595
4.77475
4.7009
4.67074
4.67283
4.69908
4.74414
4.80454
4.8776
4.95556
5.0259
5.11953
4.96363
4.85136
4.78334
4.75099
4.74629
4.76311
4.79701
4.84521
4.90521
4.96577
5.01862
5.13316
5.23094
5.32335
5.409
5.48568
5.55158
5.6036
5.63613
5.6404
5.60294
5.49841
5.26687
5.13556
5.21376
5.29086
5.36218
5.42413
5.47525
5.51265
5.53146
5.52391
5.47884
5.37675
5.18312
5.1413
5.20196
5.26498
5.32373
5.37324
5.4122
5.43823
5.44692
5.43169
5.38334
5.28804
5.12721
5.15433
5.20036
5.2469
5.29291
5.33115
5.35982
5.37683
5.37813
5.35817
5.30958
5.22299
5.08858
4.92156
4.78962
4.68521
4.61239
4.56897
4.55097
4.55432
4.57558
4.61234
4.66172
4.70809
4.73521
4.92654
4.81635
4.72581
4.65952
4.6171
4.59619
4.59377
4.60701
4.63338
4.66881
4.69794
4.71501
4.92928
4.83603
4.75692
4.69658
4.65562
4.63273
4.62581
4.6324
4.65012
4.67494
4.69441
4.70571
4.93125
4.85074
4.78102
4.72592
4.68672
4.6626
4.65219
4.65336
4.66395
4.68035
4.69354
4.70074
4.93191
4.86193
4.79993
4.74944
4.71194
4.68697
4.67386
4.67055
4.67547
4.68521
4.6933
4.69817
4.93265
4.87044
4.81498
4.76833
4.73262
4.70716
4.69193
4.68505
4.68525
4.68962
4.6937
4.69658
4.93276
4.87694
4.82722
4.78357
4.74976
4.72363
4.70701
4.69696
4.69357
4.69356
4.6943
4.69601
4.93286
4.88198
4.83684
4.79577
4.76358
4.73708
4.71937
4.70682
4.70058
4.6971
4.6953
4.69587
4.93324
4.8849
4.84421
4.80401
4.77397
4.74643
4.72859
4.71384
4.70591
4.69992
4.69646
4.69621
4.93223
4.88708
4.84691
4.80898
4.77853
4.7519
4.73294
4.71796
4.70863
4.70187
4.69767
4.69669
4.93165
4.8877
4.84764
4.81061
4.77983
4.75372
4.73425
4.71942
4.70958
4.7028
4.69859
4.69726
4.93125
4.88791
4.84775
4.81111
4.78005
4.75422
4.73453
4.71987
4.7099
4.70323
4.69911
4.69779
5.10421
5.12734
5.16852
5.22043
5.26792
5.30666
5.33393
5.34631
5.33861
5.3041
5.23471
5.12662
5.1287
5.14485
5.17217
5.21245
5.25073
5.28184
5.30306
5.31105
5.30167
5.26951
5.20957
5.12002
5.14239
5.15363
5.17483
5.2068
5.23747
5.26232
5.27844
5.28311
5.27258
5.24329
5.19112
5.11638
5.15167
5.15962
5.17698
5.20254
5.22702
5.24652
5.25855
5.26045
5.24946
5.22253
5.17761
5.11467
5.1586
5.16442
5.17889
5.19945
5.21887
5.23396
5.24244
5.24223
5.23078
5.20654
5.16719
5.11391
5.16419
5.16862
5.18075
5.19708
5.21239
5.22355
5.22932
5.22703
5.21572
5.19315
5.15921
5.11373
5.16874
5.17235
5.18269
5.19542
5.20741
5.2151
5.2186
5.21447
5.20331
5.18239
5.15257
5.11372
5.17252
5.17578
5.18464
5.19437
5.20355
5.20838
5.20993
5.20433
5.19319
5.1735
5.14713
5.11368
5.17568
5.17883
5.18693
5.19384
5.20162
5.20342
5.20442
5.19658
5.18656
5.16651
5.14328
5.11371
5.17798
5.18147
5.18838
5.19468
5.20049
5.20209
5.20118
5.19378
5.18245
5.16374
5.1409
5.11372
5.17939
5.18286
5.1892
5.19528
5.20041
5.20198
5.2004
5.19308
5.18129
5.16281
5.14013
5.11353
5.17972
5.18315
5.18928
5.19543
5.20033
5.20207
5.20021
5.19307
5.18097
5.16269
5.13996
5.1132
4.99017
4.86208
4.76733
4.70833
4.67938
4.67443
4.68874
4.71895
4.76313
4.81847
4.86944
4.89913
5.0102
4.90512
4.82431
4.77134
4.74263
4.73408
4.74196
4.76358
4.79687
4.83819
4.872
4.89092
5.02653
4.9392
4.87013
4.82276
4.79503
4.7839
4.7867
4.80112
4.82515
4.85515
4.87827
4.89019
5.04009
4.96689
4.90748
4.86526
4.83866
4.82582
4.82451
4.83297
4.84918
4.86997
4.88559
4.89284
5.05141
4.98946
4.93832
4.90067
4.87549
4.86138
4.85673
4.86023
4.86993
4.88324
4.89265
4.8971
5.06098
5.00836
4.96416
4.93078
4.90666
4.89181
4.88429
4.8837
4.88795
4.89504
4.89942
4.90156
5.06899
5.02411
4.98608
4.9566
4.9333
4.91811
4.90792
4.90412
4.90363
4.90577
4.90571
4.90623
5.07553
5.03714
5.00447
4.97816
4.95575
4.94021
4.92791
4.92141
4.91713
4.91527
4.91166
4.91056
5.08031
5.04679
5.01805
4.99527
4.97209
4.95749
4.94256
4.93491
4.9273
4.92308
4.91697
4.91453
5.08301
5.05228
5.0265
5.00394
4.98239
4.96635
4.95168
4.94209
4.93374
4.92791
4.92133
4.91779
5.08383
5.05446
5.02927
5.0067
4.98565
4.96903
4.95456
4.94431
4.93588
4.92963
4.9235
4.91991
5.08374
5.0548
5.02937
5.00648
4.98574
4.96883
4.95468
4.94424
4.93601
4.92966
4.92391
4.92067
5.11541
5.13422
5.16033
5.19411
5.22446
5.24748
5.26051
5.25988
5.2409
5.19808
5.12523
5.01865
5.13023
5.14358
5.15721
5.17993
5.20127
5.21687
5.22387
5.21891
5.19802
5.15689
5.09172
5.001
5.13678
5.14528
5.15336
5.16822
5.18247
5.19195
5.19409
5.18573
5.16355
5.1244
5.06567
4.98807
5.13956
5.14483
5.14929
5.15827
5.16674
5.17126
5.16948
5.15857
5.1358
5.09867
5.04578
4.97779
5.14042
5.14353
5.14531
5.14976
5.15381
5.1542
5.14927
5.1362
5.11295
5.07778
5.02944
4.96997
5.14041
5.14207
5.14149
5.14245
5.14277
5.13988
5.13236
5.11759
5.09431
5.06072
5.01663
4.96317
5.13974
5.14032
5.13801
5.13609
5.13372
5.1279
5.11837
5.10198
5.07864
5.04646
5.00553
4.95793
5.13878
5.1385
5.13481
5.13074
5.12621
5.11807
5.1069
5.08921
5.06588
5.03486
4.99683
4.95336
5.13765
5.13654
5.13227
5.12667
5.12102
5.11082
5.09886
5.07965
5.0567
5.02616
4.99038
4.94993
5.13651
5.13488
5.13048
5.12477
5.11809
5.1076
5.09443
5.0752
5.05168
5.02189
4.98673
4.94804
5.13563
5.13381
5.12974
5.12427
5.11725
5.10685
5.09314
5.07398
5.05017
5.02041
4.98552
4.94722
5.13515
5.13343
5.12955
5.12427
5.11715
5.1069
5.09296
5.07393
5.04991
5.02012
4.98533
4.94707
4.88586
4.76155
4.66529
4.60078
4.56563
4.55573
4.56699
4.59587
4.6401
4.6968
4.7489
4.77779
4.89281
4.78958
4.70655
4.64805
4.61346
4.60029
4.60544
4.626
4.65952
4.70187
4.73622
4.75416
4.89744
4.81052
4.73837
4.68533
4.65179
4.63626
4.63658
4.65015
4.67469
4.70601
4.73021
4.74243
4.90098
4.82639
4.7631
4.71491
4.68268
4.6656
4.66203
4.66988
4.68688
4.70942
4.7271
4.73509
4.90313
4.83872
4.78269
4.73875
4.70783
4.68955
4.68292
4.68591
4.69688
4.71238
4.72468
4.73042
4.90509
4.84828
4.79835
4.758
4.7284
4.70937
4.70017
4.69932
4.7051
4.71493
4.72309
4.7268
4.90611
4.85595
4.81111
4.7738
4.74545
4.72571
4.71451
4.71033
4.71196
4.71721
4.72176
4.72445
4.90699
4.86196
4.82125
4.78651
4.75927
4.73901
4.72621
4.71934
4.7176
4.71911
4.72096
4.72261
4.9074
4.86611
4.8287
4.79565
4.7694
4.74863
4.73469
4.72592
4.7216
4.72067
4.72036
4.72155
4.9073
4.86823
4.83227
4.80047
4.77445
4.75367
4.73906
4.72926
4.7238
4.72136
4.72026
4.72078
4.90726
4.8688
4.83339
4.80201
4.77598
4.75528
4.74036
4.73035
4.72449
4.72165
4.72036
4.72055
4.90728
4.86894
4.83367
4.8024
4.77629
4.75565
4.74065
4.73065
4.72475
4.72187
4.72067
4.72082
5.19106
5.21652
5.26395
5.32269
5.37644
5.42082
5.45333
5.47045
5.46712
5.4365
5.37105
5.26667
5.21849
5.23584
5.26828
5.31453
5.35824
5.39423
5.41978
5.4316
5.42543
5.39604
5.33852
5.25133
5.23413
5.24631
5.27173
5.30871
5.34405
5.37295
5.39267
5.40023
5.39206
5.36437
5.31367
5.24021
5.24526
5.25394
5.27473
5.30448
5.33281
5.35566
5.37047
5.37456
5.36503
5.33899
5.29448
5.23198
5.25374
5.26017
5.27746
5.30138
5.32394
5.34165
5.35227
5.35352
5.34289
5.31875
5.2792
5.2256
5.26079
5.26574
5.2801
5.2992
5.31683
5.33009
5.33721
5.33593
5.32471
5.30187
5.26694
5.22055
5.26658
5.27067
5.28272
5.29772
5.31123
5.32063
5.32471
5.32129
5.30951
5.28807
5.2567
5.21631
5.27151
5.27522
5.28536
5.2969
5.3069
5.31303
5.31451
5.3093
5.29702
5.27666
5.24828
5.21273
5.27556
5.27928
5.28799
5.2967
5.30424
5.3076
5.30741
5.30037
5.28816
5.268
5.24204
5.20993
5.27867
5.28256
5.29007
5.29735
5.30317
5.30542
5.30373
5.29621
5.28323
5.26368
5.23838
5.20825
5.28052
5.28431
5.29113
5.29788
5.3031
5.30495
5.30275
5.29497
5.28174
5.26211
5.23705
5.20748
5.28093
5.28463
5.29125
5.29794
5.30304
5.30489
5.30256
5.29479
5.28143
5.26178
5.23673
5.20716
5.13298
5.00628
4.91062
4.84877
4.816
4.80672
4.81621
4.84079
4.87778
4.92347
4.96385
4.98811
5.1432
5.0388
4.95683
4.90118
4.86908
4.8568
4.86057
4.87743
4.90457
4.93777
4.9629
4.97924
5.15114
5.06395
4.9935
4.94351
4.91266
4.89828
4.89758
4.90805
4.92699
4.95043
4.96732
4.97746
5.15752
5.08394
5.02295
4.97812
4.94868
4.933
4.92879
4.93406
4.94626
4.96204
4.97292
4.97934
5.16262
5.09989
5.04693
5.00669
4.97882
4.96227
4.95517
4.95627
4.96284
4.9725
4.97875
4.98251
5.16679
5.11301
5.06679
5.03071
5.00416
4.98718
4.97774
4.97541
4.97742
4.98208
4.98425
4.98623
5.17011
5.1237
5.08338
5.05113
5.02565
5.00867
4.99693
4.99212
4.99002
4.99084
4.98955
4.99
5.17264
5.13237
5.09717
5.06798
5.04362
5.02658
5.01313
5.00622
5.00092
4.99874
4.99451
4.99371
5.17426
5.13857
5.10711
5.08125
5.05652
5.04066
5.02475
5.01738
5.00888
5.00539
4.99893
4.99712
5.17498
5.14187
5.11314
5.08766
5.06453
5.0474
5.0321
5.02282
5.01423
5.0092
5.00281
4.99992
5.17507
5.14316
5.11502
5.08969
5.06703
5.04937
5.03443
5.0244
5.01606
5.01053
5.00478
5.00175
5.17496
5.1434
5.11511
5.08964
5.06722
5.04926
5.03466
5.02432
5.01626
5.01049
5.00519
5.00241
5.18766
5.20854
5.23609
5.26879
5.29673
5.31678
5.32651
5.32232
5.29939
5.25212
5.17402
5.06137
5.19898
5.21337
5.22775
5.2492
5.2682
5.28095
5.28488
5.27662
5.25218
5.20701
5.13718
5.04088
5.2028
5.21161
5.21953
5.23275
5.24461
5.25134
5.2506
5.23922
5.21383
5.17107
5.10804
5.02557
5.20283
5.20805
5.21162
5.21859
5.22464
5.22645
5.22202
5.20828
5.18267
5.14219
5.08549
5.01306
5.20112
5.20392
5.20428
5.20631
5.20794
5.20564
5.19828
5.18254
5.15681
5.11847
5.06665
5.00336
5.19862
5.19981
5.19733
5.19559
5.19354
5.18796
5.17827
5.16093
5.13549
5.09877
5.05162
4.99487
5.19575
5.1956
5.19118
5.18609
5.18169
5.17289
5.16177
5.1425
5.11764
5.08193
5.03838
4.98819
5.19271
5.19145
5.18545
5.17798
5.17168
5.16042
5.14806
5.12733
5.10286
5.06794
5.02775
4.98243
5.1899
5.1873
5.18116
5.17136
5.16499
5.15065
5.1388
5.11533
5.09248
5.05666
5.01964
4.97803
5.18721
5.18413
5.17751
5.16848
5.16025
5.1467
5.13259
5.11026
5.08567
5.05155
5.01476
4.97577
5.18541
5.18225
5.17598
5.16765
5.15872
5.14575
5.13059
5.10887
5.08333
5.0499
5.0134
4.97449
5.18469
5.18174
5.17564
5.16775
5.1585
5.14594
5.13023
5.10891
5.08275
5.04988
5.01342
4.97401
)
;

boundaryField
{
    rotor
    {
        type            zeroGradient;
    }
    stator
    {
        type            zeroGradient;
    }
    front
    {
        type            empty;
    }
    back
    {
        type            empty;
    }
}


// ************************************************************************* //
