/*--------------------------------*- C++ -*----------------------------------*\
  =========                 |
  \\      /  F ield         | OpenFOAM: The Open Source CFD Toolbox
   \\    /   O peration     | Website:  https://openfoam.org
    \\  /    A nd           | Version:  6
     \\/     M anipulation  |
\*---------------------------------------------------------------------------*/
FoamFile
{
    version     2.0;
    format      ascii;
    class       surfaceScalarField;
    location    "1500";
    object      phi;
}
// * * * * * * * * * * * * * * * * * * * * * * * * * * * * * * * * * * * * * //

dimensions      [0 3 -1 0 0 0 0];

internalField   nonuniform List<scalar> 
5952
(
-3.2292e-06
3.24738e-06
-5.1183e-06
1.09951e-06
-5.6741e-06
6.66322e-07
-7.51003e-06
9.58743e-07
-8.21724e-06
8.50637e-07
-9.69639e-06
5.57523e-07
-9.91137e-06
3.61427e-07
-1.09961e-05
1.8378e-07
-1.09305e-05
1.17072e-07
-1.1688e-05
3.78433e-08
-1.12953e-05
3.5834e-08
-7.64097e-09
-1.17431e-05
-3.55726e-06
6.63719e-06
-4.49502e-06
1.85269e-06
-4.47459e-06
6.0438e-07
-3.98293e-06
3.398e-07
-3.39653e-06
2.28255e-07
-3.07742e-06
1.12719e-07
-2.78179e-06
2.52886e-08
-2.69095e-06
-4.01577e-08
-2.52898e-06
-6.15704e-08
-2.50632e-06
-6.71333e-08
-2.39101e-06
-4.61909e-08
-2.69617e-08
-2.40308e-06
-8.66089e-07
7.27096e-06
-6.32139e-07
1.49637e-06
-2.46493e-07
1.84378e-07
1.55833e-07
-1.09179e-07
5.50285e-07
-1.91808e-07
8.48967e-07
-2.28917e-07
1.09445e-06
-2.43104e-07
1.25308e-06
-2.38541e-07
1.3904e-06
-2.11176e-07
1.47014e-06
-1.68431e-07
1.54348e-06
-1.12238e-07
-5.16856e-08
1.56609e-06
-3.4086e-07
7.23203e-06
6.23183e-07
3.99453e-07
1.21563e-06
-4.47633e-07
1.64132e-06
-5.76645e-07
2.00674e-06
-5.80969e-07
2.29725e-06
-5.54832e-07
2.5428e-06
-5.09546e-07
2.72216e-06
-4.4841e-07
2.87006e-06
-3.70711e-07
2.96535e-06
-2.81755e-07
3.03798e-06
-1.84279e-07
-8.30358e-08
3.06598e-06
1.40167e-07
6.42303e-06
1.18852e-06
-8.36754e-07
1.9117e-06
-1.23756e-06
2.41432e-06
-1.13616e-06
2.81914e-06
-1.02172e-06
3.1414e-06
-9.2425e-07
3.41103e-06
-8.07866e-07
3.6142e-06
-6.90822e-07
3.77729e-06
-5.51244e-07
3.8843e-06
-4.16641e-07
3.9616e-06
-2.65723e-07
-1.27224e-07
3.98978e-06
2.10236e-07
5.40157e-06
1.61385e-06
-2.48261e-06
2.4665e-06
-2.2399e-06
3.0775e-06
-1.81582e-06
3.5285e-06
-1.56605e-06
3.90909e-06
-1.3513e-06
4.19253e-06
-1.16633e-06
4.43177e-06
-9.57999e-07
4.59011e-06
-7.6788e-07
4.7206e-06
-5.56442e-07
4.78128e-06
-3.697e-07
-1.64468e-07
4.82635e-06
1.35595e-07
3.62402e-06
1.97728e-06
-4.75008e-06
3.07191e-06
-3.47818e-06
3.77178e-06
-2.65839e-06
4.3171e-06
-2.18937e-06
4.71453e-06
-1.85566e-06
5.04462e-06
-1.54625e-06
5.2691e-06
-1.26367e-06
5.45575e-06
-9.78864e-07
5.55815e-06
-7.18965e-07
5.64149e-06
-4.57753e-07
-2.18244e-07
5.65747e-06
2.61897e-07
2.83124e-06
2.4358e-06
-7.16179e-06
3.75141e-06
-4.93212e-06
4.59461e-06
-3.60668e-06
5.19392e-06
-2.88101e-06
5.63223e-06
-2.36965e-06
5.95527e-06
-1.93801e-06
6.18849e-06
-1.54808e-06
6.3515e-06
-1.18962e-06
6.45609e-06
-8.59e-07
6.51716e-06
-5.49694e-07
-2.57264e-07
6.54023e-06
3.345e-07
1.36205e-06
2.95533e-06
-1.00239e-05
4.57667e-06
-6.65956e-06
5.55708e-06
-4.6705e-06
6.20142e-06
-3.59748e-06
6.64061e-06
-2.8752e-06
6.94535e-06
-2.29754e-06
7.15442e-06
-1.80516e-06
7.29284e-06
-1.37004e-06
7.37809e-06
-9.8159e-07
7.42366e-06
-6.25672e-07
-2.94708e-07
7.43984e-06
1.00585e-06
5.23343e-07
3.88428e-06
-1.29097e-05
5.68528e-06
-8.50423e-06
6.72352e-06
-5.74525e-06
7.34639e-06
-4.26626e-06
7.74053e-06
-3.30681e-06
7.99215e-06
-2.58758e-06
8.1568e-06
-2.00104e-06
8.25672e-06
-1.50494e-06
8.31509e-06
-1.06936e-06
8.34024e-06
-6.81479e-07
-3.20475e-07
8.34982e-06
3.47145e-06
-2.69342e-06
5.78693e-06
-1.51117e-05
7.29937e-06
-9.99759e-06
8.15642e-06
-6.61305e-06
8.63436e-06
-4.76701e-06
8.91017e-06
-3.60815e-06
9.07462e-06
-2.77788e-06
9.17279e-06
-2.12611e-06
9.227e-06
-1.58717e-06
9.24994e-06
-1.12378e-06
9.25548e-06
-7.14207e-07
-3.37876e-07
9.25539e-06
9.80966e-06
-1.22707e-05
9.48686e-06
-1.45799e-05
9.64625e-06
-1.00654e-05
9.87607e-06
-6.81328e-06
1.00282e-05
-4.90661e-06
1.01136e-05
-3.69554e-06
1.01618e-05
-2.8307e-06
1.01833e-05
-2.15955e-06
1.0186e-05
-1.60697e-06
1.01731e-05
-1.13592e-06
1.01571e-05
-7.20162e-07
1.01478e-05
-3.42473e-07
-1.11946e-05
3.35228e-09
-1.13646e-05
-3.00066e-08
-1.06405e-05
-2.66744e-08
-1.05864e-05
-7.58036e-08
-9.79097e-06
-1.13001e-07
-9.4989e-06
-2.27754e-07
-8.58174e-06
-3.66041e-07
-7.76061e-06
-5.36684e-07
-6.87911e-06
-4.98033e-07
-5.95739e-06
-5.91631e-07
-3.33297e-06
-2.1127e-06
-3.19795e-06
-2.33088e-06
5.18458e-09
-2.36642e-06
2.74768e-08
-2.33174e-06
5.11515e-08
-2.40403e-06
5.40956e-08
-2.44755e-06
4.44367e-08
-2.61405e-06
2.41537e-09
-2.8211e-06
-6.19195e-08
-3.12122e-06
-1.53075e-07
-3.24407e-06
-2.76798e-07
-3.08595e-06
-6.26814e-07
-3.07486e-06
-1.89274e-06
-6.20969e-06
1.58335e-06
1.30549e-08
1.5564e-06
7.39059e-08
1.51926e-06
1.29577e-07
1.43327e-06
1.73595e-07
1.32003e-06
2.04029e-07
1.14599e-06
2.16097e-07
9.17833e-07
2.07995e-07
6.31664e-07
1.76485e-07
3.08143e-07
8.66728e-08
-3.05453e-08
-2.17515e-07
-2.7478e-07
-1.54424e-06
-6.48093e-06
3.07357e-06
1.85703e-08
3.03998e-06
1.17893e-07
2.98452e-06
2.12223e-07
2.88256e-06
2.98027e-07
2.74758e-06
3.74836e-07
2.55581e-06
4.36725e-07
2.31547e-06
4.84845e-07
2.00901e-06
5.11113e-07
1.62877e-06
4.9985e-07
1.06561e-06
3.56846e-07
4.238e-08
-5.22303e-07
-6.28054e-06
3.99379e-06
2.33049e-08
3.95308e-06
1.59091e-07
3.88513e-06
3.02758e-07
3.77063e-06
4.33923e-07
3.61365e-06
5.66728e-07
3.3999e-06
6.87575e-07
3.12056e-06
8.01699e-07
2.76076e-06
9.02375e-07
2.28228e-06
1.00668e-06
1.53143e-06
1.13655e-06
2.35411e-07
1.05374e-06
-5.87766e-06
4.81006e-06
1.61801e-08
4.77995e-06
2.1553e-07
4.69412e-06
3.97062e-07
4.58057e-06
5.96016e-07
4.40419e-06
7.84304e-07
4.17322e-06
9.85393e-07
3.85276e-06
1.1746e-06
3.44563e-06
1.38297e-06
2.90692e-06
1.64206e-06
2.13353e-06
2.06086e-06
9.0053e-07
2.46456e-06
-4.33041e-06
5.6634e-06
2.81066e-08
5.61163e-06
2.62254e-07
5.5456e-06
5.13325e-07
5.41752e-06
7.61665e-07
5.25267e-06
1.03524e-06
4.99789e-06
1.30865e-06
4.66959e-06
1.61279e-06
4.22886e-06
1.93588e-06
3.61535e-06
2.33037e-06
2.72463e-06
3.05757e-06
1.69605e-06
4.12014e-06
-2.56056e-06
6.5334e-06
2.77791e-08
6.49893e-06
3.15374e-07
6.42954e-06
6.10994e-07
6.32648e-06
9.29207e-07
6.15872e-06
1.26568e-06
5.927e-06
1.63922e-06
5.58469e-06
2.03768e-06
5.10028e-06
2.49377e-06
4.45432e-06
3.11857e-06
3.47505e-06
4.15416e-06
1.98862e-06
5.61655e-06
-1.19098e-08
7.43527e-06
2.82448e-08
7.40818e-06
3.53533e-07
7.35954e-06
6.95893e-07
7.27302e-06
1.06529e-06
7.13806e-06
1.47036e-06
6.92292e-06
1.92328e-06
6.60264e-06
2.43715e-06
6.14487e-06
3.0501e-06
5.41864e-06
3.83726e-06
4.32779e-06
5.31294e-06
2.81398e-06
7.52466e-06
2.52128e-06
8.34708e-06
2.70713e-08
8.33405e-06
3.80963e-07
8.30785e-06
7.57558e-07
8.25108e-06
1.16543e-06
8.15582e-06
1.62467e-06
7.9878e-06
2.14277e-06
7.7242e-06
2.75296e-06
7.28971e-06
3.5035e-06
6.64935e-06
4.57991e-06
5.56099e-06
6.39452e-06
3.73023e-06
9.1324e-06
6.39715e-06
9.25711e-06
2.38203e-08
9.26059e-06
3.94584e-07
9.25765e-06
7.91462e-07
9.23955e-06
1.22553e-06
9.18968e-06
1.71511e-06
9.09076e-06
2.27726e-06
8.91773e-06
2.95977e-06
8.63021e-06
3.83005e-06
8.10583e-06
5.04464e-06
7.30679e-06
7.20475e-06
5.66728e-06
1.07903e-05
1.15749e-05
1.0155e-05
1.8091e-08
1.01751e-05
3.9336e-07
1.01967e-05
7.95596e-07
1.02162e-05
1.24027e-06
1.02174e-05
1.73497e-06
1.0203e-05
2.31187e-06
1.0156e-05
3.00568e-06
1.00587e-05
3.90999e-06
9.90203e-06
5.23191e-06
9.60384e-06
7.38686e-06
8.72833e-06
1.13628e-05
2.03896e-05
-1.25368e-05
3.3055e-07
-1.23078e-05
-1.19045e-06
-1.13237e-05
-4.49229e-07
-1.23277e-05
2.32264e-07
-1.22166e-05
3.70013e-07
-1.30986e-05
2.03498e-07
-1.27045e-05
7.8894e-08
-1.32419e-05
-5.59537e-08
-1.2669e-05
-8.64135e-08
-1.30249e-05
-1.41286e-07
-1.23852e-05
-1.32767e-07
-1.71527e-07
-1.26117e-05
-2.17824e-06
2.16748e-06
-4.07583e-06
4.39239e-07
-4.48734e-06
-2.36783e-08
-4.29487e-06
-6.73382e-08
-3.80352e-06
-9.23464e-08
-3.5174e-06
-1.64028e-07
-3.17949e-06
-2.22867e-07
-3.03208e-06
-2.68075e-07
-2.79931e-06
-2.74342e-07
-2.71916e-06
-2.67388e-07
-2.55756e-06
-2.39757e-07
-2.16938e-07
-2.53772e-06
-8.84534e-07
2.92555e-06
-7.26479e-07
1.86004e-07
-3.93353e-07
-3.51869e-07
-4.38086e-08
-4.44643e-07
3.39432e-07
-4.64972e-07
6.37036e-07
-4.79613e-07
9.06998e-07
-4.79882e-07
1.09089e-06
-4.64957e-07
1.26057e-06
-4.28754e-07
1.36452e-06
-3.7925e-07
1.46171e-06
-3.18311e-07
-2.54504e-07
1.49829e-06
-3.14768e-07
2.94945e-06
4.77921e-07
-6.81168e-07
1.04114e-06
-9.19168e-07
1.45833e-06
-8.76713e-07
1.83126e-06
-8.18066e-07
2.13364e-06
-7.87927e-07
2.40194e-06
-7.24223e-07
2.60198e-06
-6.69465e-07
2.77338e-06
-5.76685e-07
2.88558e-06
-4.95689e-07
2.97572e-06
-3.84748e-07
-2.93186e-07
3.01236e-06
5.41812e-09
2.63631e-06
1.05437e-06
-1.84941e-06
1.72145e-06
-1.67256e-06
2.2484e-06
-1.38467e-06
2.62879e-06
-1.2597e-06
3.00464e-06
-1.11148e-06
3.26204e-06
-1.0247e-06
3.5209e-06
-8.70779e-07
3.67026e-06
-7.64414e-07
3.82796e-06
-5.95658e-07
3.8854e-06
-4.79002e-07
-3.05138e-07
3.95777e-06
2.71208e-08
1.24413e-06
1.41789e-06
-3.61125e-06
2.31448e-06
-2.65392e-06
2.86173e-06
-2.09117e-06
3.38983e-06
-1.75335e-06
3.72608e-06
-1.56185e-06
4.0927e-06
-1.33272e-06
4.29161e-06
-1.15964e-06
4.5296e-06
-9.32346e-07
4.61631e-06
-7.59271e-07
4.75349e-06
-5.35177e-07
-3.65521e-07
4.74978e-06
3.93568e-07
3.58996e-07
1.87684e-06
-5.3835e-06
2.90258e-06
-3.80585e-06
3.61415e-06
-2.89136e-06
4.13748e-06
-2.40104e-06
4.5802e-06
-2.03849e-06
4.90132e-06
-1.73433e-06
5.17239e-06
-1.43568e-06
5.34891e-06
-1.16246e-06
5.4978e-06
-8.90303e-07
5.57087e-06
-6.39763e-07
-3.84798e-07
5.62635e-06
3.50844e-07
-9.6312e-07
2.34195e-06
-7.50454e-06
3.57425e-06
-5.23889e-06
4.42604e-06
-3.82862e-06
5.03498e-06
-3.08079e-06
5.49003e-06
-2.55778e-06
5.82792e-06
-2.11929e-06
6.07959e-06
-1.72339e-06
6.25712e-06
-1.3637e-06
6.38447e-06
-1.02916e-06
6.46228e-06
-7.1716e-07
-4.17141e-07
6.50261e-06
2.99244e-07
-9.77718e-07
2.76786e-06
-1.01029e-05
4.40765e-06
-6.84029e-06
5.38698e-06
-4.87859e-06
6.04703e-06
-3.79802e-06
6.50333e-06
-3.06548e-06
6.82366e-06
-2.48046e-06
7.04718e-06
-1.97972e-06
7.20251e-06
-1.54069e-06
7.30922e-06
-1.14452e-06
7.37588e-06
-7.83211e-07
-4.39742e-07
7.41133e-06
5.28566e-07
-1.42734e-06
3.61948e-06
-1.30484e-05
5.45513e-06
-8.78099e-06
6.54455e-06
-5.96553e-06
7.19689e-06
-4.47353e-06
7.609e-06
-3.50609e-06
7.87797e-06
-2.77405e-06
8.05358e-06
-2.17961e-06
8.17349e-06
-1.6717e-06
8.25125e-06
-1.22918e-06
8.30309e-06
-8.27291e-07
-4.52649e-07
8.33172e-06
2.90938e-06
-3.73392e-06
5.41807e-06
-1.54618e-05
7.0721e-06
-1.02759e-05
7.97596e-06
-6.86971e-06
8.48894e-06
-4.99778e-06
8.78858e-06
-3.82048e-06
8.96729e-06
-2.97471e-06
9.07917e-06
-2.30914e-06
9.14976e-06
-1.75677e-06
9.19688e-06
-1.28021e-06
9.2285e-06
-8.53659e-07
-4.58132e-07
9.25109e-06
9.35169e-06
-1.29862e-05
9.20605e-06
-1.50874e-05
9.41175e-06
-1.04912e-05
9.70532e-06
-7.10987e-06
9.89423e-06
-5.15923e-06
1.00032e-05
-3.92236e-06
1.00649e-05
-3.03878e-06
1.00996e-05
-2.34921e-06
1.01183e-05
-1.78143e-06
1.01315e-05
-1.29149e-06
1.01426e-05
-8.56174e-07
1.01586e-05
-4.52441e-07
-1.19344e-05
-1.5458e-07
-1.20741e-05
-1.79029e-07
-1.13956e-05
-1.68268e-07
-1.14758e-05
-2.15412e-07
-1.07905e-05
-2.46582e-07
-1.07048e-05
-3.58185e-07
-9.92088e-06
-4.91263e-07
-9.27793e-06
-6.71334e-07
-8.37619e-06
-6.80806e-07
-7.25532e-06
-8.89771e-07
-4.24886e-06
-2.64602e-06
-4.15259e-06
-2.44387e-06
-1.83853e-07
-2.47445e-06
-1.5804e-07
-2.44321e-06
-1.31616e-07
-2.54008e-06
-1.25313e-07
-2.60305e-06
-1.32199e-07
-2.80313e-06
-1.69859e-07
-3.03339e-06
-2.33642e-07
-3.36704e-06
-3.31731e-07
-3.50967e-06
-4.88995e-07
-3.37586e-06
-9.36784e-07
-3.36011e-06
-2.48339e-06
-7.45463e-06
1.52626e-06
-1.88263e-07
1.49896e-06
-1.25546e-07
1.46297e-06
-6.67628e-08
1.36362e-06
-2.04425e-08
1.24089e-06
1.53643e-08
1.04266e-06
3.07307e-08
7.94157e-07
2.70177e-08
4.73892e-07
-6.70044e-09
1.25101e-07
-1.19165e-07
-2.28967e-07
-5.16472e-07
-4.03494e-07
-2.19726e-06
-7.80253e-06
3.02889e-06
-1.78841e-07
2.99686e-06
-8.80327e-08
2.94082e-06
1.78374e-08
2.83325e-06
9.94353e-08
2.68685e-06
1.88514e-07
2.47851e-06
2.48936e-07
2.21983e-06
3.13058e-07
1.89e-06
3.32959e-07
1.50101e-06
3.12322e-07
9.46194e-07
7.37573e-08
2.2161e-08
-1.18565e-06
-7.49664e-06
3.93645e-06
-1.86528e-07
3.92923e-06
-1.70976e-08
3.83556e-06
1.00652e-07
3.742e-06
2.62853e-07
3.55213e-06
3.76646e-07
3.35177e-06
5.31281e-07
3.02672e-06
6.28733e-07
2.67207e-06
7.60483e-07
2.16424e-06
8.40519e-07
1.40752e-06
8.98099e-07
1.45715e-07
5.67631e-07
-7.04712e-06
4.79887e-06
-1.46383e-07
4.72006e-06
2.3247e-08
4.68726e-06
2.41066e-07
4.52561e-06
4.17374e-07
4.38927e-06
6.41183e-07
4.10299e-06
8.23304e-07
3.80745e-06
1.05083e-06
3.35083e-06
1.24265e-06
2.80192e-06
1.50758e-06
2.05157e-06
1.92494e-06
7.7554e-07
2.13511e-06
-5.04519e-06
5.61655e-06
-1.44619e-07
5.59462e-06
1.08934e-07
5.51162e-06
3.56599e-07
5.40459e-06
6.27906e-07
5.21518e-06
8.97744e-07
4.9735e-06
1.19665e-06
4.60755e-06
1.49262e-06
4.15905e-06
1.84212e-06
3.56589e-06
2.26317e-06
2.60664e-06
2.91997e-06
1.95119e-06
4.09385e-06
-2.88557e-06
6.50665e-06
-1.22374e-07
6.47834e-06
1.75206e-07
6.41934e-06
4.88412e-07
6.3095e-06
8.15117e-07
6.14768e-06
1.1716e-06
5.89422e-06
1.54803e-06
5.55232e-06
1.96955e-06
5.06584e-06
2.43632e-06
4.36458e-06
3.04829e-06
3.52132e-06
4.18862e-06
2.0215e-06
5.51128e-06
1.61084e-07
7.41789e-06
-1.04483e-07
7.40385e-06
2.38911e-07
7.3571e-06
5.98859e-07
7.27428e-06
9.84992e-07
7.12961e-06
1.40639e-06
6.91123e-06
1.87101e-06
6.5807e-06
2.39874e-06
6.10358e-06
3.02366e-06
5.42781e-06
3.8593e-06
4.22252e-06
5.23777e-06
2.96101e-06
7.67572e-06
2.68764e-06
8.34472e-06
-8.61933e-08
8.34413e-06
2.89549e-07
8.31902e-06
6.84692e-07
8.26559e-06
1.11587e-06
8.15686e-06
1.58657e-06
7.98737e-06
2.12554e-06
7.71234e-06
2.74819e-06
7.28758e-06
3.51555e-06
6.58186e-06
4.56985e-06
5.60105e-06
6.50073e-06
3.59602e-06
9.10124e-06
6.44703e-06
9.27054e-06
-7.28549e-08
9.28391e-06
3.23181e-07
9.28546e-06
7.42037e-07
9.26217e-06
1.19823e-06
9.20568e-06
1.70309e-06
9.09921e-06
2.28519e-06
8.9177e-06
2.97758e-06
8.6118e-06
3.86697e-06
8.11203e-06
5.1162e-06
7.174e-06
7.17572e-06
5.57051e-06
1.08757e-05
1.16285e-05
1.01845e-05
-6.34651e-08
1.02123e-05
3.37709e-07
1.02385e-05
7.6707e-07
1.02486e-05
1.22875e-06
1.0246e-05
1.74582e-06
1.02175e-05
2.33558e-06
1.01676e-05
3.05236e-06
1.00605e-05
3.968e-06
9.83786e-06
5.28067e-06
9.51649e-06
7.50301e-06
8.55148e-06
1.14279e-05
2.0022e-05
-3.31229e-06
3.33778e-06
-5.29297e-06
1.16442e-06
-5.88241e-06
7.14594e-07
-7.77159e-06
9.86619e-07
-8.48547e-06
8.70817e-07
-1.00025e-05
5.73645e-07
-1.02257e-05
3.78012e-07
-1.13393e-05
1.9384e-07
-1.12703e-05
1.19561e-07
-1.20458e-05
3.60214e-08
-1.16428e-05
3.54487e-08
-6.11386e-09
-1.21054e-05
-3.61111e-06
6.78252e-06
-4.56472e-06
1.93011e-06
-4.53509e-06
6.45297e-07
-4.04471e-06
3.66561e-07
-3.45726e-06
2.485e-07
-3.14045e-06
1.28805e-07
-2.84186e-06
3.90785e-08
-2.7552e-06
-2.87873e-08
-2.59873e-06
-5.34546e-08
-2.58372e-06
-6.31738e-08
-2.46994e-06
-4.41969e-08
-2.53527e-08
-2.48337e-06
-9.04104e-07
7.45825e-06
-6.76536e-07
1.58088e-06
-2.87639e-07
2.23564e-07
1.17759e-07
-8.51362e-08
5.14867e-07
-1.73674e-07
8.14533e-07
-2.13845e-07
1.06105e-06
-2.30186e-07
1.21971e-06
-2.27557e-07
1.35643e-06
-2.02514e-07
1.43358e-06
-1.62142e-07
1.50464e-06
-1.07795e-07
-4.86784e-08
1.52576e-06
-3.8313e-07
7.47518e-06
5.78994e-07
4.87768e-07
1.17754e-06
-4.12459e-07
1.60655e-06
-5.55589e-07
1.97448e-06
-5.64401e-07
2.26579e-06
-5.40561e-07
2.51212e-06
-4.96948e-07
2.69114e-06
-4.3746e-07
2.83863e-06
-3.61465e-07
2.9323e-06
-2.74263e-07
3.0037e-06
-1.78539e-07
-7.90212e-08
3.03038e-06
7.78139e-08
6.75454e-06
1.14364e-06
-7.61044e-07
1.87365e-06
-1.20677e-06
2.37919e-06
-1.11729e-06
2.78588e-06
-1.00586e-06
3.10868e-06
-9.10442e-07
3.37871e-06
-7.95028e-07
3.58134e-06
-6.79797e-07
3.7439e-06
-5.41194e-07
3.8494e-06
-4.08524e-07
3.92569e-06
-2.58729e-07
-1.22495e-07
3.95242e-06
1.58535e-07
5.81267e-06
1.57029e-06
-2.40551e-06
2.42742e-06
-2.21137e-06
3.04173e-06
-1.79667e-06
3.493e-06
-1.5505e-06
3.87491e-06
-1.33639e-06
4.1574e-06
-1.15353e-06
4.39717e-06
-9.45796e-07
4.55363e-06
-7.57877e-07
4.68387e-06
-5.47018e-07
4.74209e-06
-3.62657e-07
-1.58531e-07
4.78682e-06
7.70376e-08
4.15193e-06
1.93116e-06
-4.67443e-06
3.03281e-06
-3.44956e-06
3.73368e-06
-2.63908e-06
4.28087e-06
-2.17201e-06
4.6776e-06
-1.84036e-06
5.00857e-06
-1.53198e-06
5.23158e-06
-1.25147e-06
5.41822e-06
-9.67809e-07
5.51832e-06
-7.09787e-07
5.60088e-06
-4.49895e-07
-2.12669e-07
5.61454e-06
2.14839e-07
3.43137e-06
2.39459e-06
-7.08199e-06
3.7119e-06
-4.90123e-06
4.55596e-06
-3.58517e-06
5.15576e-06
-2.86258e-06
5.59431e-06
-2.35306e-06
5.91721e-06
-1.92313e-06
6.14985e-06
-1.53507e-06
6.31193e-06
-1.17835e-06
6.41475e-06
-8.49463e-07
6.47412e-06
-5.41753e-07
-2.51378e-07
6.49526e-06
3.06898e-07
2.04718e-06
2.91961e-06
-9.92267e-06
4.53804e-06
-6.62168e-06
5.51774e-06
-4.64608e-06
6.16215e-06
-3.57755e-06
6.60144e-06
-2.85772e-06
6.90608e-06
-2.282e-06
7.11474e-06
-1.79165e-06
7.25199e-06
-1.35835e-06
7.33543e-06
-9.71726e-07
7.37891e-06
-6.17257e-07
-2.88435e-07
7.39314e-06
1.00141e-06
1.2248e-06
3.85523e-06
-1.27771e-05
5.64843e-06
-8.45575e-06
6.68432e-06
-5.71674e-06
7.30652e-06
-4.24453e-06
7.70062e-06
-3.28832e-06
7.9522e-06
-2.57148e-06
8.11661e-06
-1.98689e-06
8.21509e-06
-1.49281e-06
8.27163e-06
-1.05867e-06
8.294e-06
-6.72684e-07
-3.13391e-07
8.30182e-06
3.49344e-06
-1.99372e-06
5.76265e-06
-1.49303e-05
7.26309e-06
-9.9357e-06
8.11667e-06
-6.57998e-06
8.59385e-06
-4.74346e-06
8.86961e-06
-3.58881e-06
9.03425e-06
-2.76115e-06
9.13209e-06
-2.11146e-06
9.18513e-06
-1.57421e-06
9.20567e-06
-1.11227e-06
9.2084e-06
-7.04503e-07
-3.29896e-07
9.20622e-06
9.78906e-06
-1.15575e-05
9.44503e-06
-1.43821e-05
9.60278e-06
-1.00027e-05
9.83325e-06
-6.78042e-06
9.98608e-06
-4.88306e-06
1.00721e-05
-3.67594e-06
1.01208e-05
-2.81358e-06
1.01422e-05
-2.14434e-06
1.01439e-05
-1.59314e-06
1.01283e-05
-1.1236e-06
1.01095e-05
-7.0954e-07
1.00978e-05
-3.33985e-07
-1.15428e-05
3.63141e-09
-1.17158e-05
-3.60211e-08
-1.09657e-05
-3.2408e-08
-1.09208e-05
-7.7176e-08
-1.01107e-05
-1.12189e-07
-9.82292e-06
-2.32828e-07
-8.88652e-06
-3.74315e-07
-8.05494e-06
-5.51092e-07
-7.14002e-06
-5.24832e-07
-6.16839e-06
-6.34576e-07
-3.45577e-06
-2.18935e-06
-3.31887e-06
-2.40991e-06
6.08034e-09
-2.44973e-06
2.55437e-08
-2.41389e-06
4.68113e-08
-2.48325e-06
4.95809e-08
-2.51928e-06
4.00304e-08
-2.68405e-06
-4.90539e-09
-2.88792e-06
-7.28831e-08
-3.18812e-06
-1.68778e-07
-3.31404e-06
-2.99782e-07
-3.1597e-06
-6.63605e-07
-3.14961e-06
-1.96555e-06
-6.40349e-06
1.54303e-06
1.43636e-08
1.51506e-06
7.31775e-08
1.47704e-06
1.26901e-07
1.39091e-06
1.69368e-07
1.27967e-06
1.98085e-07
1.10615e-06
2.07831e-07
8.77583e-07
1.97013e-07
5.89194e-07
1.61953e-07
2.62241e-07
6.67074e-08
-8.02806e-08
-2.50394e-07
-3.10032e-07
-1.62703e-06
-6.70718e-06
3.03752e-06
2.07182e-08
3.00308e-06
1.1811e-07
2.94729e-06
2.10456e-07
2.84483e-06
2.9433e-07
2.71006e-06
3.69114e-07
2.5177e-06
4.2872e-07
2.27662e-06
4.74088e-07
1.96904e-06
4.97029e-07
1.58818e-06
4.79799e-07
1.03e-06
3.20712e-07
2.76545e-08
-6.22126e-07
-6.52851e-06
3.95582e-06
2.65594e-08
3.91417e-06
1.59957e-07
3.84603e-06
3.02017e-07
3.73084e-06
4.30747e-07
3.57352e-06
5.61838e-07
3.3586e-06
6.80053e-07
3.07822e-06
7.9198e-07
2.71632e-06
8.89118e-07
2.23667e-06
9.87921e-07
1.48346e-06
1.10177e-06
1.59505e-07
9.69391e-07
-6.21112e-06
4.76864e-06
1.93485e-08
4.73874e-06
2.17317e-07
4.65156e-06
3.9612e-07
4.53822e-06
5.93573e-07
4.36024e-06
7.79109e-07
4.12884e-06
9.78409e-07
3.80611e-06
1.16445e-06
3.39759e-06
1.36985e-06
2.85512e-06
1.62184e-06
2.0762e-06
2.02542e-06
8.34188e-07
2.37876e-06
-4.76513e-06
5.62013e-06
3.17425e-08
5.56695e-06
2.63377e-07
5.50113e-06
5.12511e-07
5.37175e-06
7.58401e-07
5.20643e-06
1.02987e-06
4.94961e-06
1.30059e-06
4.61955e-06
1.60178e-06
4.17486e-06
1.92059e-06
3.55891e-06
2.31027e-06
2.66146e-06
3.02164e-06
1.58141e-06
4.0524e-06
-3.11617e-06
6.48745e-06
3.14469e-08
6.45214e-06
3.16591e-07
6.38255e-06
6.10096e-07
6.27862e-06
9.25975e-07
6.10988e-06
1.26024e-06
5.87584e-06
1.63094e-06
5.53064e-06
2.02634e-06
5.04369e-06
2.47854e-06
4.39309e-06
3.09449e-06
3.41262e-06
4.11368e-06
1.9365e-06
5.53421e-06
-6.55249e-07
7.38733e-06
3.24635e-08
7.35958e-06
3.55272e-07
7.31052e-06
6.95639e-07
7.22329e-06
1.06281e-06
7.08679e-06
1.4658e-06
6.86909e-06
1.91607e-06
6.54545e-06
2.42674e-06
6.08285e-06
3.03415e-06
5.35644e-06
3.81394e-06
4.26785e-06
5.26278e-06
2.7631e-06
7.40449e-06
1.82996e-06
8.29756e-06
3.19556e-08
8.28419e-06
3.83889e-07
8.25737e-06
7.58401e-07
8.20009e-06
1.16462e-06
8.10276e-06
1.62187e-06
7.93176e-06
2.13806e-06
7.66335e-06
2.74534e-06
7.22449e-06
3.49096e-06
6.57858e-06
4.55399e-06
5.49252e-06
6.33983e-06
3.68844e-06
8.98846e-06
5.6333e-06
9.20669e-06
2.94755e-08
9.20974e-06
3.98473e-07
9.20654e-06
7.93479e-07
9.1877e-06
1.22635e-06
9.13575e-06
1.71465e-06
9.03313e-06
2.27594e-06
8.854e-06
2.95649e-06
8.55732e-06
3.82321e-06
8.02403e-06
5.02945e-06
7.21503e-06
7.15418e-06
5.5832e-06
1.0621e-05
1.07397e-05
1.0104e-05
2.49495e-08
1.01236e-05
3.98421e-07
1.01455e-05
7.99356e-07
1.01643e-05
1.24309e-06
1.01635e-05
1.7378e-06
1.01446e-05
2.31489e-06
1.00904e-05
3.00955e-06
9.98187e-06
3.91395e-06
9.80585e-06
5.23092e-06
9.48015e-06
7.36678e-06
8.57042e-06
1.12357e-05
1.93688e-05
-3.33927e-06
3.30367e-06
-5.20191e-06
1.11859e-06
-5.75264e-06
6.87031e-07
-7.45634e-06
9.754e-07
-8.08664e-06
8.63726e-07
-9.31598e-06
5.75942e-07
-9.37881e-06
3.6992e-07
-1.01417e-05
1.82651e-07
-9.87988e-06
1.03804e-07
-1.04003e-05
2.03501e-08
-9.99571e-06
7.79255e-09
-3.62005e-08
-1.03658e-05
-3.607e-06
6.75935e-06
-4.55927e-06
1.9003e-06
-4.52529e-06
6.2261e-07
-3.99586e-06
3.51532e-07
-3.37854e-06
2.34947e-07
-3.00295e-06
1.19028e-07
-2.65842e-06
2.77709e-08
-2.50179e-06
-4.17296e-08
-2.30656e-06
-7.49194e-08
-2.24644e-06
-9.07681e-08
-2.12666e-06
-8.14677e-08
-6.93045e-08
-2.12587e-06
-9.12672e-07
7.57264e-06
-6.68702e-07
1.57822e-06
-2.67939e-07
2.08681e-07
1.50336e-07
-1.00519e-07
5.66645e-07
-1.88123e-07
8.88153e-07
-2.30292e-07
1.16153e-06
-2.48553e-07
1.34745e-06
-2.50328e-07
1.50579e-06
-2.3139e-07
1.5975e-06
-1.98826e-07
1.67611e-06
-1.52616e-07
-1.01382e-07
1.69989e-06
-4.03778e-07
7.68309e-06
5.87067e-07
5.04338e-07
1.18694e-06
-4.17342e-07
1.63054e-06
-5.67398e-07
2.01112e-06
-5.70875e-07
2.32204e-06
-5.58297e-07
2.58746e-06
-5.10295e-07
2.78679e-06
-4.64671e-07
2.94925e-06
-3.87183e-07
3.05448e-06
-3.1668e-07
3.1324e-06
-2.20295e-07
-1.38026e-07
3.16067e-06
9.86436e-08
7.24577e-06
1.15988e-06
-6.8635e-07
1.8724e-06
-1.21262e-06
2.409e-06
-1.10797e-06
2.80134e-06
-1.02578e-06
3.16897e-06
-9.01927e-07
3.42894e-06
-8.18904e-07
3.67616e-06
-6.80136e-07
3.82432e-06
-5.78358e-07
3.96884e-06
-4.24853e-07
4.02291e-06
-3.1369e-07
-1.54284e-07
4.08193e-06
2.94568e-08
6.01682e-06
1.52947e-06
-2.5107e-06
2.45712e-06
-2.23291e-06
3.03057e-06
-1.82232e-06
3.54717e-06
-1.53426e-06
3.89016e-06
-1.35163e-06
4.24009e-06
-1.13708e-06
4.44112e-06
-9.67412e-07
4.66299e-06
-7.53736e-07
4.75006e-06
-5.85467e-07
4.87158e-06
-3.74741e-07
-2.10214e-07
4.86735e-06
1.92162e-07
5.27607e-06
1.96802e-06
-4.57332e-06
3.05123e-06
-3.43997e-06
3.77284e-06
-2.63798e-06
4.2976e-06
-2.17774e-06
4.73069e-06
-1.82869e-06
5.04607e-06
-1.53215e-06
5.30645e-06
-1.24331e-06
5.47714e-06
-9.78572e-07
5.61616e-06
-7.16662e-07
5.68352e-06
-4.74658e-07
-2.29536e-07
5.72973e-06
5.10043e-08
4.06989e-06
2.42294e-06
-7.11827e-06
3.72887e-06
-4.9476e-06
4.58719e-06
-3.59038e-06
5.19006e-06
-2.85813e-06
5.63496e-06
-2.34346e-06
5.9633e-06
-1.91318e-06
6.20533e-06
-1.52696e-06
6.37511e-06
-1.17712e-06
6.49426e-06
-8.52843e-07
6.56509e-06
-5.5035e-07
-2.59705e-07
6.59804e-06
4.05143e-07
3.6853e-06
2.94636e-06
-9.84268e-06
4.58993e-06
-6.58975e-06
5.55667e-06
-4.64385e-06
6.20025e-06
-3.57147e-06
6.64174e-06
-2.84688e-06
6.95005e-06
-2.27114e-06
7.16375e-06
-1.78142e-06
7.31103e-06
-1.35297e-06
7.41013e-06
-9.67766e-07
7.46989e-06
-6.1596e-07
-2.8216e-07
7.49839e-06
1.08034e-06
2.44554e-06
3.93817e-06
-1.26438e-05
5.68533e-06
-8.46902e-06
6.72552e-06
-5.7067e-06
7.34744e-06
-4.23508e-06
7.74011e-06
-3.28087e-06
7.99489e-06
-2.56212e-06
8.16102e-06
-1.97999e-06
8.27254e-06
-1.48433e-06
8.34371e-06
-1.05245e-06
8.38842e-06
-6.6065e-07
-2.95332e-07
8.41066e-06
3.71179e-06
-8.48647e-07
5.82435e-06
-1.47358e-05
7.32357e-06
-9.85642e-06
8.15773e-06
-6.56699e-06
8.63247e-06
-4.74026e-06
8.90958e-06
-3.58782e-06
9.07438e-06
-2.76069e-06
9.17692e-06
-2.10998e-06
9.24031e-06
-1.57089e-06
9.28117e-06
-1.10499e-06
9.30628e-06
-6.88545e-07
-3.02379e-07
9.32222e-06
9.92995e-06
-1.07513e-05
9.54034e-06
-1.41823e-05
9.63749e-06
-9.99396e-06
9.86926e-06
-6.77396e-06
1.0023e-05
-4.88746e-06
1.01112e-05
-3.68521e-06
1.0161e-05
-2.82432e-06
1.01876e-05
-2.15207e-06
1.02008e-05
-1.59743e-06
1.02083e-05
-1.11853e-06
1.02136e-05
-6.91867e-07
1.02227e-05
-2.97224e-07
-9.89354e-06
-3.28025e-08
-1.01506e-05
-6.93326e-08
-9.63339e-06
-7.49096e-08
-9.80959e-06
-1.34138e-07
-9.25141e-06
-1.78423e-07
-9.25473e-06
-2.86394e-07
-8.59465e-06
-4.12825e-07
-8.05792e-06
-5.88689e-07
-7.29761e-06
-5.74983e-07
-6.38357e-06
-7.24798e-07
-3.71686e-06
-2.36994e-06
-3.6352e-06
-2.06813e-06
-4.70545e-08
-2.12174e-06
-3.23107e-08
-2.12881e-06
-1.78268e-08
-2.25518e-06
-2.12256e-08
-2.3587e-06
-3.80921e-08
-2.58203e-06
-8.08402e-08
-2.83212e-06
-1.44747e-07
-3.18014e-06
-2.39014e-07
-3.33473e-06
-3.81404e-07
-3.20944e-06
-7.81283e-07
-3.24644e-06
-2.18539e-06
-6.83539e-06
1.71326e-06
-4.63004e-08
1.6744e-06
5.64158e-09
1.62302e-06
5.43043e-08
1.51104e-06
9.1221e-08
1.37266e-06
1.18525e-07
1.1634e-06
1.27317e-07
9.07533e-07
1.19186e-07
5.86677e-07
8.42157e-08
2.41146e-07
-1.86293e-08
-1.12474e-07
-3.69832e-07
-3.35992e-07
-1.8743e-06
-7.12469e-06
3.16589e-06
-3.62634e-08
3.12548e-06
4.64111e-08
3.05841e-06
1.41317e-07
2.94218e-06
2.15747e-07
2.78527e-06
2.95122e-07
2.56984e-06
3.49665e-07
2.30557e-06
4.06158e-07
1.97485e-06
4.2364e-07
1.58596e-06
4.09381e-07
1.02629e-06
2.1911e-07
6.25959e-08
-8.36058e-07
-6.76889e-06
4.05666e-06
-4.08992e-08
4.03671e-06
1.15577e-07
3.93833e-06
2.28517e-07
3.83221e-06
3.78794e-07
3.63796e-06
4.87995e-07
3.42725e-06
6.31483e-07
3.1011e-06
7.24367e-07
2.74262e-06
8.48067e-07
2.23882e-06
9.33456e-07
1.48674e-06
1.03349e-06
2.40759e-07
9.12302e-07
-6.21164e-06
4.90177e-06
-3.57933e-09
4.82138e-06
1.6116e-07
4.77389e-06
3.67347e-07
4.60966e-06
5.38682e-07
4.45981e-06
7.51089e-07
4.17197e-06
9.27695e-07
3.86793e-06
1.1442e-06
3.41321e-06
1.33017e-06
2.86721e-06
1.59278e-06
2.14268e-06
2.039e-06
9.86299e-07
2.36672e-06
-3.96326e-06
5.71436e-06
2.69127e-09
5.68277e-06
2.47055e-07
5.59291e-06
4.87165e-07
5.47547e-06
7.49137e-07
5.27947e-06
1.01124e-06
5.02944e-06
1.30073e-06
4.65922e-06
1.58843e-06
4.207e-06
1.92893e-06
3.61759e-06
2.3466e-06
2.66945e-06
3.01783e-06
2.07794e-06
4.27e-06
-1.70386e-06
6.59516e-06
2.6224e-08
6.55892e-06
3.1511e-07
6.49128e-06
6.19535e-07
6.37268e-06
9.37643e-07
6.20258e-06
1.28543e-06
5.94182e-06
1.65346e-06
5.59348e-06
2.06662e-06
5.10225e-06
2.52548e-06
4.3962e-06
3.13284e-06
3.55366e-06
4.29202e-06
2.00624e-06
5.70826e-06
1.30837e-06
7.49807e-06
4.4204e-08
7.47605e-06
3.78329e-07
7.42099e-06
7.29336e-07
7.32955e-06
1.10663e-06
7.17707e-06
1.51965e-06
6.95133e-06
1.97658e-06
6.61374e-06
2.49734e-06
6.12901e-06
3.11607e-06
5.44589e-06
3.9506e-06
4.22467e-06
5.34698e-06
2.92519e-06
7.91215e-06
3.78098e-06
8.41649e-06
6.14095e-08
8.40836e-06
4.27594e-07
8.37518e-06
8.13369e-07
8.31385e-06
1.23575e-06
8.1979e-06
1.69853e-06
8.02147e-06
2.23085e-06
7.73943e-06
2.84823e-06
7.30689e-06
3.61167e-06
6.58954e-06
4.66774e-06
5.59349e-06
6.62882e-06
3.543e-06
9.36028e-06
7.48436e-06
9.33466e-06
7.29025e-08
9.34072e-06
4.58991e-07
9.33476e-06
8.68241e-07
9.30442e-06
1.31577e-06
9.24151e-06
1.81328e-06
9.12904e-06
2.38972e-06
8.94138e-06
3.07831e-06
8.62799e-06
3.96604e-06
8.11855e-06
5.22157e-06
7.1591e-06
7.31338e-06
5.51849e-06
1.11704e-05
1.26048e-05
1.02416e-05
8.10457e-08
1.02623e-05
4.71363e-07
1.02817e-05
8.90663e-07
1.02856e-05
1.34385e-06
1.02778e-05
1.85396e-06
1.02446e-05
2.43893e-06
1.01899e-05
3.15305e-06
1.00774e-05
4.06873e-06
9.84637e-06
5.38907e-06
9.5174e-06
7.64538e-06
8.54949e-06
1.17123e-05
2.09838e-05
1.7565e-05
-6.87883e-06
-2.27637e-05
1.3993e-05
-1.08245e-05
1.22977e-05
-8.2745e-06
1.16626e-05
-6.1329e-06
1.141e-05
-4.63317e-06
1.12891e-05
-3.56811e-06
1.12186e-05
-2.76076e-06
1.11668e-05
-2.11596e-06
1.11199e-05
-1.57716e-06
1.10743e-05
-1.11405e-06
1.10368e-05
-7.05135e-07
-3.36506e-07
1.10187e-05
1.92304e-05
-3.57356e-06
-2.24704e-05
1.5737e-05
-7.16417e-06
1.3964e-05
-6.39239e-06
1.30844e-05
-5.18184e-06
1.26301e-05
-4.13799e-06
1.23767e-05
-3.28665e-06
1.22188e-05
-2.58793e-06
1.21094e-05
-2.00051e-06
1.20216e-05
-1.49664e-06
1.19479e-05
-1.05541e-06
1.18906e-05
-6.65841e-07
-3.16489e-07
1.18624e-05
1.87065e-05
-2.00652e-06
-2.01718e-05
1.64582e-05
-4.78308e-06
1.50237e-05
-4.85848e-06
1.41797e-05
-4.27164e-06
1.36749e-05
-3.59195e-06
1.33609e-05
-2.94635e-06
1.31533e-05
-2.36618e-06
1.3005e-05
-1.84826e-06
1.28878e-05
-1.38717e-06
1.27902e-05
-9.75846e-07
1.27157e-05
-6.06592e-07
-2.77332e-07
1.26738e-05
1.82117e-05
-1.89265e-05
-1.23935e-06
1.68355e-05
-3.29765e-06
1.57748e-05
-3.69912e-06
1.50542e-05
-3.48003e-06
1.45746e-05
-3.05842e-06
1.42497e-05
-2.58438e-06
1.40232e-05
-2.11242e-06
1.38544e-05
-1.66486e-06
1.37177e-05
-1.24893e-06
1.36024e-05
-8.68718e-07
1.35101e-05
-5.21028e-07
1.34412e-05
-2.17111e-07
1.10332e-05
7.12788e-09
1.1068e-05
3.75316e-07
1.11143e-05
7.74687e-07
1.11644e-05
1.21276e-06
1.12169e-05
1.69699e-06
1.12778e-05
2.25258e-06
1.13668e-05
2.91008e-06
1.15328e-05
3.73465e-06
1.18614e-05
4.82793e-06
1.27e-05
6.50827e-06
1.50447e-05
8.9632e-06
1.25093e-05
2.27772e-05
1.18869e-05
-1.1695e-08
1.19363e-05
3.39757e-07
1.20025e-05
7.28104e-07
1.20773e-05
1.14667e-06
1.21688e-05