/*--------------------------------*- C++ -*----------------------------------*\
  =========                 |
  \\      /  F ield         | OpenFOAM: The Open Source CFD Toolbox
   \\    /   O peration     | Website:  https://openfoam.org
    \\  /    A nd           | Version:  6
     \\/     M anipulation  |
\*---------------------------------------------------------------------------*/
FoamFile
{
    version     2.0;
    format      ascii;
    class       volVectorField;
    location    "1500";
    object      U;
}
// * * * * * * * * * * * * * * * * * * * * * * * * * * * * * * * * * * * * * //

dimensions      [0 1 -1 0 0 0 0];

internalField   nonuniform List<vector> 
3072
(
(0.280762 1.49973 0)
(0.273026 1.61663 0)
(0.324716 1.49701 -1.00115e-20)
(0.380473 1.352 -4.21712e-18)
(0.434681 1.26066 6.8557e-18)
(0.493324 1.2026 -3.52371e-18)
(0.55171 1.1413 -2.14145e-18)
(0.614099 1.08755 -1.254e-17)
(0.673592 1.02669 2.11725e-17)
(0.736158 0.971312 -8.08538e-18)
(0.796995 0.911487 6.39029e-18)
(0.86048 0.855078 3.51436e-18)
(0.32559 1.06317 -9.38057e-20)
(0.218851 0.968959 -6.5856e-19)
(0.166967 0.754525 1.59664e-19)
(0.156621 0.613616 0)
(0.163432 0.540371 8.21593e-19)
(0.177186 0.497037 -1.20642e-18)
(0.195683 0.465187 0)
(0.216913 0.438271 0)
(0.240321 0.412609 0)
(0.26446 0.387608 2.51752e-21)
(0.289401 0.362468 -4.81854e-18)
(0.314095 0.337473 -1.39007e-19)
(0.302955 0.900741 1.09586e-19)
(0.1339 0.726821 0)
(0.0855711 0.500786 0)
(0.077376 0.384273 -5.28814e-19)
(0.0819505 0.329329 3.06963e-19)
(0.0910206 0.298016 -6.59713e-19)
(0.102492 0.2757 8.4277e-19)
(0.115461 0.257097 0)
(0.129643 0.23995 0)
(0.144451 0.223456 -6.73449e-19)
(0.15973 0.207177 -8.13709e-19)
(0.175142 0.191102 2.37221e-18)
(0.196447 0.915936 -4.13363e-19)
(0.0537491 0.692219 -3.81926e-19)
(0.0352797 0.448961 1.49049e-19)
(0.0392627 0.337392 -1.5815e-19)
(0.0490892 0.287293 5.41541e-19)
(0.0607497 0.258615 -5.99379e-19)
(0.0732247 0.237548 -3.75706e-19)
(0.0862586 0.21956 -1.36892e-18)
(0.0997941 0.203016 -1.21471e-19)
(0.113664 0.187266 1.05175e-18)
(0.127768 0.171972 1.28902e-18)
(0.141983 0.156969 -1.28826e-18)
(0.0548638 1.02419 0)
(-0.0334202 0.710286 1.43415e-19)
(-0.0109543 0.444267 -1.48866e-19)
(0.00835274 0.331892 2.72529e-19)
(0.0248226 0.282132 3.40899e-20)
(0.0401811 0.253023 3.06018e-19)
(0.0553057 0.230955 3.64736e-19)
(0.0702684 0.211858 4.24819e-19)
(0.0853125 0.194263 -1.02982e-18)
(0.100252 0.177686 1.02958e-18)
(0.115226 0.161676 -1.8544e-18)
(0.130081 0.146114 2.56836e-18)
(-0.161446 1.08006 -3.9638e-19)
(-0.131088 0.72229 9.62296e-20)
(-0.0597417 0.446021 2.87487e-19)
(-0.0230372 0.332679 0)
(0.000751422 0.282281 -5.56902e-19)
(0.0204301 0.251877 6.08476e-19)
(0.0385795 0.228447 0)
(0.0560713 0.20807 -9.32153e-19)
(0.0730279 0.189468 9.31496e-19)
(0.0895905 0.171985 0)
(0.105753 0.155276 -4.82876e-20)
(0.121663 0.138966 1.27029e-18)
(-0.416303 1.10333 0)
(-0.24263 0.726547 -2.62187e-19)
(-0.113382 0.444446 1.61745e-19)
(-0.0570927 0.33074 0)
(-0.0249721 0.279464 -3.13071e-19)
(-0.00041569 0.247798 -6.57676e-20)
(0.0212296 0.223302 7.23204e-19)
(0.0414657 0.202139 9.59613e-19)
(0.0605313 0.183001 -9.59222e-19)
(0.0787402 0.165096 1.13284e-18)
(0.0961161 0.148034 -1.17776e-18)
(0.112958 0.13127 -3.98913e-18)
(-0.690396 1.10002 0)
(-0.366974 0.721045 2.46287e-19)
(-0.172466 0.436307 -2.86697e-19)
(-0.0939657 0.322966 2.85373e-19)
(-0.0520707 0.271108 0)
(-0.0219833 0.238799 -6.88091e-19)
(0.00364909 0.213982 8.82781e-19)
(0.0266791 0.192883 1.09089e-19)
(0.0479242 0.173873 -2.0833e-18)
(0.0675723 0.156224 -1.19512e-18)
(0.0860593 0.139233 -5.47915e-20)
(0.103509 0.122503 2.67688e-18)
(-0.958779 1.01512 0)
(-0.501689 0.699084 -3.03591e-19)
(-0.236964 0.418711 -3.6136e-19)
(-0.132661 0.307189 -2.78859e-19)
(-0.0794924 0.25589 6.99319e-19)
(-0.0429893 0.224205 0)
(-0.0132532 0.200365 0)
(0.0126308 0.180328 0)
(0.0357473 0.162372 0)
(0.0566796 0.14557 1.15104e-18)
(0.0758904 0.129262 -1.29711e-18)
(0.0937159 0.112918 1.29742e-18)
(-1.15664 0.797241 0)
(-0.641707 0.641471 2.90138e-19)
(-0.30397 0.383575 -7.13777e-20)
(-0.170943 0.28004 3.57924e-19)
(-0.105194 0.232585 4.16235e-19)
(-0.0619693 0.203942 -8.57817e-19)
(-0.0282405 0.182787 0)
(0.000105272 0.165061 2.15127e-20)
(0.0247332 0.149006 -3.27832e-18)
(0.046548 0.133693 0)
(0.0661488 0.118535 2.53615e-18)
(0.0839782 0.102994 -1.38134e-18)
(-1.20828 0.434755 0)
(-0.752716 0.500488 4.43185e-19)
(-0.359037 0.316518 9.01038e-19)
(-0.202622 0.236944 -7.12493e-19)
(-0.125967 0.200348 -1.19131e-18)
(-0.0770398 0.178458 2.18704e-18)
(-0.0402101 0.162075 1.20453e-20)
(-0.0101527 0.147857 -1.0313e-18)
(0.0153802 0.13444 1.12381e-18)
(0.0376051 0.121137 -2.40755e-18)
(0.0572168 0.10752 -3.81397e-18)
(0.0747119 0.0931127 3.98235e-18)
(-0.994168 -0.103913 -3.26079e-19)
(-0.691515 0.211129 -1.67119e-18)
(-0.367097 0.201429 3.4264e-19)
(-0.216806 0.175051 0)
(-0.137499 0.160005 0)
(-0.0863065 0.14922 6.93848e-20)
(-0.0482579 0.139503 3.05169e-18)
(-0.0176777 0.129687 2.10652e-18)
(0.0079947 0.119386 0)
(0.0300897 0.108423 2.38072e-18)
(0.0493504 0.0966041 0)
(0.0661976 0.0836098 1.50883e-20)
(0.917818 0.791898 -2.72216e-17)
(0.978116 0.731349 1.17622e-17)
(1.03362 0.666045 -1.33952e-17)
(1.09122 0.602156 -4.81936e-18)
(1.14361 0.534866 -5.1452e-18)
(1.19808 0.469322 0)
(1.24675 0.402165 0)
(1.29397 0.335481 1.30654e-17)
(1.34322 0.263642 -1.40324e-17)
(1.48365 0.214663 0)
(1.55138 0.214339 0)
(1.26592 0.240491 -1.72346e-20)
(0.33891 0.311962 3.69617e-18)
(0.363301 0.2865 0)
(0.38755 0.260613 -9.32145e-21)
(0.411319 0.235076 2.26852e-18)
(0.434876 0.209721 1.2022e-18)
(0.45831 0.185783 5.2181e-18)
(0.482862 0.163746 -7.95421e-18)
(0.513745 0.145846 1.34637e-18)
(0.569419 0.135804 0)
(0.692693 0.147947 0)
(0.900407 0.205412 0)
(1.02024 0.305009 3.63275e-18)
(0.190715 0.175032 9.54663e-19)
(0.206231 0.159071 -2.79475e-18)
(0.221806 0.143192 1.02292e-18)
(0.237425 0.127671 2.2551e-18)
(0.253356 0.112629 -2.25481e-18)
(0.269865 0.0984642 0)
(0.288177 0.0855181 0)
(0.312132 0.0745534 -9.0327e-21)
(0.355416 0.0679486 8.55769e-19)
(0.456888 0.0728685 0)
(0.671605 0.108115 0)
(0.904586 0.233485 -4.06271e-18)
(0.156293 0.142131 -5.73901e-20)
(0.17068 0.127422 2.30847e-18)
(0.185224 0.112834 1.74956e-18)
(0.200062 0.0984628 -1.74986e-18)
(0.215452 0.0843943 0)
(0.231716 0.070775 1.01932e-18)
(0.249711 0.057674 0)
(0.272386 0.0452309 1.76292e-18)
(0.311458 0.0343973 -7.03493e-19)
(0.405716 0.0277184 0)
(0.618778 0.0319913 -1.40774e-18)
(0.846281 0.0754241 5.92737e-18)
(0.144999 0.130694 -1.42084e-18)
(0.159929 0.115404 0)
(0.175145 0.10005 0)
(0.190754 0.0847158 0)
(0.207159 0.0693222 0)
(0.224658 0.0539968 -1.97621e-18)
(0.244051 0.0386587 3.40581e-20)
(0.267805 0.0232171 -1.10904e-18)
(0.306601 0.0069593 0)
(0.400111 -0.0129597 -1.05499e-18)
(0.625039 -0.0463448 1.3034e-18)
(0.915269 -0.0596022 -2.65093e-18)
(0.137373 0.122818 5.27617e-20)
(0.153111 0.106582 -3.00799e-18)
(0.169027 0.0901096 1.69246e-18)
(0.185497 0.0732546 1.09211e-19)
(0.202836 0.0559949 4.6228e-20)
(0.221605 0.0382468 3.01852e-18)
(0.242531 0.0200625 9.36233e-20)
(0.267904 0.000807453 -3.34691e-18)
(0.307188 -0.0217408 -1.31e-18)
(0.399646 -0.0563025 1.00257e-18)
(0.634949 -0.129647 -2.44035e-18)
(0.982987 -0.23228 -6.39276e-18)
(0.129336 0.114565 4.2975e-18)
(0.145587 0.097487 1.58447e-18)
(0.161925 0.0798863 0)
(0.178763 0.061464 0)
(0.196563 0.0421196 4.56785e-20)
(0.215977 0.0217327 -1.90174e-18)
(0.237895 0.000120618 3.12262e-18)
(0.26434 -0.0235831 3.79839e-20)
(0.304153 -0.0527089 1.28861e-18)
(0.395336 -0.102014 0)
(0.630642 -0.213937 2.44687e-20)
(0.980268 -0.419012 2.40341e-20)
(0.120316 0.105479 -1.38646e-18)
(0.136647 0.087877 -1.53259e-18)
(0.152962 0.0692726 1.61976e-18)
(0.169567 0.0494483 -1.77408e-18)
(0.187125 0.0280683 -1.0159e-19)
(0.206287 0.00496251 3.7835e-18)
(0.228181 -0.0203321 -2.05582e-18)
(0.255158 -0.048756 1.07398e-18)
(0.294932 -0.085319 0)
(0.383085 -0.150023 9.01335e-19)
(0.615111 -0.301243 1.11721e-18)
(0.949366 -0.602252 -4.76652e-18)
(0.1105 0.0960179 1.4746e-18)
(0.126568 0.0781396 -1.4745e-18)
(0.142276 0.0589004 -1.61449e-18)
(0.158098 0.0379088 -3.42956e-18)
(0.174563 0.01485 3.57924e-18)
(0.192548 -0.010813 -3.73818e-18)
(0.213209 -0.0396162 0)
(0.238837 -0.0733014 -1.06757e-18)
(0.277088 -0.117853 0)
(0.360449 -0.199016 0)
(0.581244 -0.389684 0)
(0.860302 -0.764662 1.88994e-18)
(0.100399 0.0865542 1.38159e-18)
(0.115767 0.0687734 -2.99777e-18)
(0.13045 0.0492245 3.15082e-18)
(0.144874 0.0275479 3.27451e-18)
(0.159563 0.00322518 1.70414e-18)
(0.175257 -0.0243786 0)
(0.193135 -0.0563754 0)
(0.215598 -0.0950387 1.99019e-18)
(0.249107 -0.147928 0)
(0.321435 -0.245876 -7.71191e-19)
(0.522084 -0.478854 8.69097e-19)
(0.739558 -0.929875 -2.76729e-18)
(0.0904313 0.0774592 -2.81962e-18)
(0.104757 0.0600926 2.96977e-18)
(0.118056 0.0406429 -3.12136e-18)
(0.130651 0.0187546 -8.16027e-18)
(0.142969 -0.00616008 3.24817e-20)
(0.155491 -0.0348973 1.50954e-20)
(0.169066 -0.0690632 -1.81709e-18)
(0.185352 -0.111676 -1.96872e-18)
(0.209783 -0.171569 0)
(0.262467 -0.282491 2.03198e-18)
(0.409126 -0.550411 8.03237e-19)
(0.59332 -1.03532 -2.01162e-18)
(0.0809277 0.0690164 -1.70637e-21)
(0.0939508 0.0523529 0)
(0.105612 0.0333741 0)
(0.116148 0.0117637 1.57535e-18)
(0.125742 -0.012981 4.93599e-18)
(0.134499 -0.0418322 -1.72744e-18)
(0.142561 -0.0765388 5.35376e-20)
(0.150408 -0.120569 -8.68114e-19)
(0.159845 -0.182846 -9.65392e-19)
(0.179617 -0.294576 -1.23741e-18)
(0.244219 -0.572424 0)
(0.29887 -1.46967 1.25448e-18)
(1.43334 -0.261441 6.10039e-21)
(1.53592 -0.248399 0)
(1.39786 -0.288718 -7.80701e-21)
(1.30401 -0.354964 0)
(1.23685 -0.416173 2.18691e-18)
(1.19038 -0.479229 -2.11299e-18)
(1.13766 -0.542236 0)
(1.08744 -0.607298 -7.83778e-18)
(1.02519 -0.665519 1.47907e-17)
(0.968162 -0.726159 -1.1388e-17)
(0.910173 -0.788223 -2.7418e-18)
(0.855328 -0.853369 -3.0914e-18)
(1.06803 -0.301657 -1.54538e-19)
(0.946008 -0.186955 -1.89661e-19)
(0.731256 -0.150521 2.1281e-19)
(0.607211 -0.146497 0)
(0.541771 -0.156172 -5.76011e-19)
(0.50161 -0.171186 5.51684e-19)
(0.471053 -0.190368 0)
(0.444361 -0.211894 9.46906e-19)
(0.418297 -0.235453 -3.47229e-18)
(0.392821 -0.259762 2.35957e-18)
(0.367408 -0.284791 2.95993e-18)
(0.342467 -0.309688 -4.69832e-18)
(1.00304 -0.225609 -1.0664e-20)
(0.739822 -0.0996035 0)
(0.500682 -0.0698947 -9.98437e-20)
(0.387501 -0.0679839 0)
(0.334312 -0.0748166 0)
(0.303689 -0.084827 -3.80741e-19)
(0.281503 -0.0968107 1.50513e-18)
(0.262721 -0.110109 -1.28233e-18)
(0.245299 -0.124512 5.29856e-19)
(0.228571 -0.139512 0)
(0.212189 -0.154972 1.37115e-18)
(0.196117 -0.170604 -7.64899e-19)
(1.0275 -0.0795453 -7.08512e-21)
(0.70875 -0.0159995 6.23531e-20)
(0.453186 -0.0197224 8.58145e-20)
(0.342403 -0.0301299 1.98685e-19)
(0.292728 -0.0421176 -1.63748e-19)
(0.264165 -0.0544047 -2.50823e-19)
(0.242935 -0.0673207 0)
(0.22479 -0.0805172 0)
(0.208025 -0.0943401 4.58882e-19)
(0.192217 -0.108346 0)
(0.176862 -0.122738 1.14611e-20)
(0.161993 -0.137147 6.32776e-19)
(1.06215 0.0975697 1.25498e-19)
(0.716045 0.0709122 -2.29614e-20)
(0.449203 0.0253552 -8.9453e-20)
(0.337245 -0.000243207 0)
(0.287718 -0.0184304 0)
(0.258354 -0.0345604 2.68654e-19)
(0.236041 -0.0497853 0)
(0.216629 -0.0650277 -8.44013e-19)
(0.198923 -0.0800797 -5.70779e-19)
(0.182196 -0.0952836 9.67551e-19)
(0.166284 -0.11033 -1.77161e-18)
(0.150718 -0.125525 1.20449e-18)
(1.08864 0.308733 -6.34572e-21)
(0.72599 0.167153 -6.00727e-20)
(0.451132 0.0730241 8.52391e-20)
(0.338384 0.0305067 -2.77108e-20)
(0.287804 0.00500948 1.8238e-19)
(0.257021 -0.0152999 -5.57458e-19)
(0.233229 -0.0336481 7.52916e-19)
(0.212518 -0.0512729 8.44813e-20)
(0.193744 -0.0682929 0)
(0.17616 -0.0849775 0)
(0.159452 -0.101257 2.41555e-18)
(0.143164 -0.117389 1.10874e-19)
(1.09712 0.534784 -1.36731e-19)
(0.728762 0.27301 -1.23614e-19)
(0.449416 0.125083 0)
(0.336213 0.0642468 -1.82412e-19)
(0.284791 0.0303201 2.55118e-19)
(0.252789 0.00536699 9.20636e-19)
(0.227793 -0.0167061 7.57654e-19)
(0.206386 -0.0368989 4.17705e-20)
(0.18694 -0.0562072 -2.0314e-18)
(0.169012 -0.0743482 1.03509e-18)
(0.151761 -0.0919905 1.27858e-18)
(0.135106 -0.108881 6.17862e-20)
(1.04078 0.753365 2.24019e-20)
(0.716424 0.384508 1.53583e-19)
(0.441019 0.182242 0)
(0.328447 0.100426 -2.45425e-19)
(0.276312 0.0574042 -2.53068e-19)
(0.243524 0.0266912 9.44513e-20)
(0.218313 0.000869737 -1.47615e-18)
(0.19684 -0.0223987 7.87701e-20)
(0.177644 -0.0436822 3.77077e-20)
(0.159768 -0.0635036 1.1384e-18)
(0.142687 -0.0820506 -1.25329e-18)
(0.125808 -0.0997478 -4.18162e-20)
(0.941756 0.968018 -2.58876e-19)
(0.693631 0.510105 8.86387e-20)
(0.423421 0.245014 -4.15892e-19)
(0.312507 0.138829 2.39833e-19)
(0.260915 0.0846888 0)
(0.228739 0.0476942 0)
(0.204446 0.0176756 8.6835e-19)
(0.184061 -0.00841649 1.97302e-18)
(0.165847 -0.031671 -9.99724e-19)
(0.148801 -0.0527454 -1.13475e-18)
(0.132293 -0.0720798 -1.23408e-18)
(0.115754 -0.0900984 0)
(0.763737 1.15478 -8.02619e-20)
(0.64249 0.648695 3.02899e-19)
(0.389343 0.31171 6.62499e-19)
(0.285504 0.176978 0)
(0.23741 0.11037 7.33391e-19)
(0.208204 0.0666775 0)
(0.18658 0.0326278 8.06452e-20)
(0.168495 0.00404572 -8.69865e-19)
(0.152141 -0.0207609 1.17035e-18)
(0.136555 -0.0427204 0)
(0.121115 -0.062464 0)
(0.105305 -0.0804702 -2.69946e-18)
(0.420525 1.20521 -4.20601e-19)
(0.505796 0.761869 3.87322e-19)
(0.322796 0.367641 1.01696e-19)
(0.242148 0.208875 -7.8684e-19)
(0.204896 0.131212 -3.10847e-19)
(0.182391 0.08177 -4.02889e-19)
(0.165542 0.0445741 -9.78166e-19)
(0.150981 0.0142557 -3.18749e-18)
(0.137244 -0.0114894 -1.11554e-18)
(0.123624 -0.0338509 -2.41408e-18)
(0.109639 -0.0536101 2.55747e-18)
(0.0949167 -0.0712664 2.67339e-18)
(-0.106883 1.00167 4.76386e-19)
(0.216873 0.704545 -1.53915e-19)
(0.206856 0.376569 1.17397e-19)
(0.179897 0.223333 7.57512e-19)
(0.164118 0.142857 0)
(0.152749 0.0910431 -9.62129e-19)
(0.142606 0.0525952 9.66665e-19)
(0.13247 0.0217212 1.01024e-18)
(0.121853 -0.00415507 -3.41782e-18)
(0.110521 -0.026389 2.38656e-18)
(0.0982979 -0.0457685 -2.52845e-18)
(0.0849318 -0.0627848 0)
(0.792529 -0.910791 1.08477e-17)
(0.730792 -0.967875 -2.97574e-17)
(0.666797 -1.02446 7.44222e-18)
(0.604944 -1.08554 2.24744e-17)
(0.538388 -1.13882 -2.29311e-17)
(0.473481 -1.19416 5.03064e-18)
(0.406722 -1.24316 2.46431e-19)
(0.34051 -1.28919 -5.33343e-18)
(0.27013 -1.33454 -1.27817e-17)
(0.224424 -1.46923 0)
(0.229236 -1.52827 0)
(0.264557 -1.22902 -1.88901e-20)
(0.316938 -0.334606 -2.99001e-19)
(0.291461 -0.359258 3.58856e-18)
(0.265905 -0.38422 -2.09294e-20)
(0.240783 -0.408901 0)
(0.215787 -0.433469 3.45849e-18)
(0.192165 -0.458089 0)
(0.170452 -0.483932 2.57782e-18)
(0.153059 -0.516034 4.18593e-18)
(0.144352 -0.572554 -3.10333e-18)
(0.159999 -0.695579 0)
(0.225038 -0.898741 0)
(0.333831 -1.00898 -2.65808e-20)
(0.180153 -0.186426 8.97466e-19)
(0.164369 -0.202325 -8.2649e-19)
(0.148721 -0.218414 9.70204e-19)
(0.133452 -0.234689 0)
(0.118637 -0.251429 -1.10956e-18)
(0.104692 -0.268922 2.45005e-18)
(0.0919288 -0.28836 -3.05791e-18)
(0.0812524 -0.313453 -3.4515e-18)
(0.075546 -0.357659 2.46943e-18)
(0.0834011 -0.459579 0)
(0.12796 -0.672253 1.56478e-18)
(0.278075 -0.897725 1.27066e-18)
(0.147249 -0.151826 6.93041e-19)
(0.132792 -0.166544 -1.51414e-18)
(0.118365 -0.181628 1.69249e-18)
(0.10426 -0.197026 -1.69267e-18)
(0.0903083 -0.213198 0)
(0.0768868 -0.230305 9.99595e-19)
(0.0637525 -0.249296 1.08205e-18)
(0.051503 -0.27288 6.36206e-19)
(0.0411439 -0.312595 -1.35294e-18)
(0.0370672 -0.406928 0)
(0.0506678 -0.616281 -1.39072e-18)
(0.109787 -0.826157 4.2667e-18)
(0.135529 -0.140638 1.43211e-18)
(0.120319 -0.156036 -6.92018e-19)
(0.105237 -0.171602 0)
(0.0899588 -0.187837 0)
(0.0748136 -0.204846 9.15548e-19)
(0.0594037 -0.223157 -9.71218e-19)
(0.0441952 -0.243373 -2.95316e-21)
(0.0286174 -0.26801 0)
(0.0127553 -0.307217 -6.66804e-19)
(-0.00490428 -0.40085 1.05229e-18)
(-0.0302401 -0.621842 -2.60955e-18)
(-0.0237229 -0.893222 -2.47847e-18)
(0.127138 -0.133356 -2.79141e-18)
(0.110991 -0.149442 1.4503e-18)
(0.0946605 -0.165753 3.28572e-18)
(0.0778971 -0.182712 1.11571e-19)
(0.0607249 -0.200612 -4.5338e-18)
(0.0429976 -0.220073 -1.94669e-18)
(0.0248102 -0.241752 4.86568e-21)
(0.00544814 -0.267779 0)
(-0.0167178 -0.30778 0)
(-0.0500102 -0.400115 -1.00094e-18)
(-0.117137 -0.632416 -1.2217e-18)
(-0.199215 -0.964288 3.0253e-18)
(0.118298 -0.125642 1.46686e-18)
(0.101403 -0.142108 -2.98774e-18)
(0.0837329 -0.15891 -1.62283e-18)
(0.0654891 -0.176109 5.9026e-20)
(0.0460874 -0.194503 1.95168e-18)
(0.0258515 -0.214424 2.07008e-18)
(0.00411678 -0.237049 1.08146e-18)
(-0.0194797 -0.264227 1.14293e-18)
(-0.0488186 -0.304299 -1.24907e-18)
(-0.0969785 -0.395693 0)
(-0.205818 -0.630397 2.29305e-18)
(-0.398226 -0.973196 -2.96783e-18)
(0.108778 -0.116745 0)
(0.0911154 -0.133446 1.5221e-18)
(0.0725505 -0.150073 0)
(0.0527072 -0.16715 -4.5183e-20)
(0.0314172 -0.185145 -1.02712e-19)
(0.0083052 -0.204894 3.78248e-18)
(-0.0169126 -0.227325 -4.06871e-18)
(-0.0455589 -0.254708 0)
(-0.082059 -0.295068 -1.22304e-18)
(-0.14639 -0.383023 9.04868e-19)
(-0.295588 -0.614372 -3.11859e-18)
(-0.592625 -0.952683 7.48843e-18)
(0.0987307 -0.107125 1.47418e-18)
(0.0807704 -0.123495 -1.47405e-18)
(0.061476 -0.139587 -1.60358e-18)
(0.0405189 -0.155808 1.68945e-18)
(0.0174607 -0.172779 1.83869e-18)
(-0.00809367 -0.19122 -5.60716e-18)
(-0.0369767 -0.212364 2.00859e-18)
(-0.0706644 -0.238506 0)
(-0.115291 -0.276757 1.20134e-18)
(-0.195863 -0.360269 0)
(-0.384874 -0.582 2.84366e-18)
(-0.759283 -0.861711 -7.41243e-18)
(0.0886829 -0.0971342 0)
(0.0707623 -0.112816 -3.00969e-18)
(0.0511762 -0.12787 -1.56925e-18)
(0.0294898 -0.142724 -3.38636e-18)
(0.0052497 -0.157885 1.7086e-18)
(-0.02232 -0.174061 1.85345e-18)
(-0.0543007 -0.192352 0)
(-0.0930071 -0.215109 0)
(-0.145732 -0.249147 0)
(-0.242801 -0.321361 0)
(-0.47406 -0.522356 -8.45224e-19)
(-0.925242 -0.745431 1.24736e-19)
(0.0790228 -0.087237 1.45272e-18)
(0.0615066 -0.101891 1.52848e-18)
(0.0420205 -0.115553 6.23712e-18)
(0.020144 -0.128609 1.57268e-18)
(-0.00465944 -0.141379 6.77189e-18)
(-0.0333894 -0.15436 -1.73642e-18)
(-0.067485 -0.168338 -1.81902e-18)
(-0.110095 -0.185119 0)
(-0.16971 -0.209736 -2.06275e-18)
(-0.279658 -0.263136 -1.33246e-18)
(-0.54527 -0.411479 -1.40738e-18)
(-1.03341 -0.59943 -1.2546e-25)
(0.0700559 -0.0777678 0)
(0.0532536 -0.0911283 0)
(0.034241 -0.103182 -6.11474e-18)
(0.0127073 -0.114172 -4.82089e-18)
(-0.0119574 -0.124225 -1.71168e-18)
(-0.0407343 -0.133424 0)
(-0.0754057 -0.141911 1.798e-18)
(-0.119423 -0.150158 0)
(-0.181419 -0.160449 9.66682e-20)
(-0.292051 -0.181251 1.23713e-18)
(-0.568037 -0.247119 5.7226e-19)
(-1.45647 -0.303074 2.61838e-18)
(-0.282118 -1.49977 3.86421e-19)
(-0.274168 -1.61701 -1.43366e-18)
(-0.325724 -1.49769 1.43902e-18)
(-0.381342 -1.35334 -1.57108e-18)
(-0.43567 -1.2627 0)
(-0.494229 -1.20451 1.93605e-18)
(-0.552349 -1.14281 0)
(-0.614898 -1.08951 2.41548e-18)
(-0.676867 -1.03131 -8.61684e-18)
(-0.741471 -0.977228 8.2793e-18)
(-0.80044 -0.915182 2.01228e-17)
(-0.862118 -0.857111 -6.46267e-18)
(-0.327561 -1.06288 7.84336e-20)
(-0.220482 -0.969718 -6.81514e-19)
(-0.168016 -0.75536 3.69794e-19)
(-0.15742 -0.614414 3.63418e-19)
(-0.164139 -0.541137 -8.42463e-19)
(-0.177834 -0.497727 -6.44228e-20)
(-0.196287 -0.465722 -9.98967e-19)
(-0.217477 -0.438687 -3.02322e-18)
(-0.240956 -0.413246 3.88337e-18)
(-0.265132 -0.38846 -1.29386e-18)
(-0.290057 -0.363251 3.60955e-21)
(-0.314762 -0.338112 1.53213e-19)
(-0.306609 -0.900486 -2.28738e-19)
(-0.135652 -0.727324 0)
(-0.0865189 -0.501418 0)
(-0.0780405 -0.38481 -1.63718e-19)
(-0.0824937 -0.329775 0)
(-0.0915 -0.298395 -1.90699e-19)
(-0.102929 -0.276012 4.74963e-19)
(-0.115858 -0.257354 1.15335e-18)
(-0.130008 -0.24021 -4.6558e-19)
(-0.144811 -0.22377 -1.29839e-18)
(-0.16012 -0.207524 -2.34382e-18)
(-0.17555 -0.191436 2.41491e-18)
(-0.200525 -0.915035 -3.00739e-19)
(-0.0554747 -0.692441 -1.57262e-19)
(-0.036123 -0.449592 1.67062e-19)
(-0.0398354 -0.337886 1.35984e-19)
(-0.0495675 -0.287678 0)
(-0.0611818 -0.258942 -7.07008e-19)
(-0.0736285 -0.237839 6.97257e-19)
(-0.0866406 -0.219825 0)
(-0.100159 -0.203275 1.07014e-18)
(-0.114023 -0.187531 -1.63716e-18)
(-0.128128 -0.172244 1.31088e-18)
(-0.142343 -0.157241 5.98639e-20)
(-0.0599549 -1.02048 3.53909e-19)
(0.0318187 -0.710684 2.89104e-19)
(0.0102523 -0.44509 -4.27129e-21)
(-0.00882861 -0.332433 0)
(-0.025246 -0.28255 -2.97155e-19)
(-0.0405799 -0.253381 5.92609e-19)
(-0.0556913 -0.231277 0)
(-0.0706404 -0.212161 -4.38473e-19)
(-0.0856812 -0.194553 -5.54767e-19)
(-0.100618 -0.177972 1.04746e-18)
(-0.115596 -0.161955 0)
(-0.130453 -0.146394 -1.33245e-18)
(0.154009 -1.07963 2.72229e-19)
(0.129732 -0.723701 3.47654e-20)
(0.059239 -0.447129 -1.45368e-19)
(0.022645 -0.333317 -5.27375e-19)
(-0.00112393 -0.282767 -6.67727e-20)
(-0.0208013 -0.252297 6.1842e-19)
(-0.038946 -0.228833 0)
(-0.056438 -0.208434 1.34032e-18)
(-0.0733978 -0.189817 -1.06353e-18)
(-0.0899687 -0.172316 1.06338e-18)
(-0.106136 -0.155588 -4.96128e-20)
(-0.122055 -0.139269 -1.09044e-19)
(0.408992 -1.10539 -2.59003e-19)
(0.241683 -0.728608 -1.56865e-19)
(0.113111 -0.445807 0)
(0.056803 -0.331499 5.32118e-19)
(0.0246534 -0.280022 -8.62422e-19)
(8.15529e-05 -0.24828 1.71582e-20)
(-0.0215662 -0.223739 -1.55126e-18)
(-0.0418105 -0.202555 7.01529e-20)
(-0.0608872 -0.1834 -9.74203e-19)
(-0.079112 -0.165463 -1.15059e-18)
(-0.0964939 -0.148369 1.31183e-18)
(-0.113349 -0.131587 -1.30003e-18)
(0.684786 -1.10559 1.26587e-19)
(0.366703 -0.723741 -9.69078e-20)
(0.172456 -0.437846 0)
(0.0937805 -0.323783 2.88367e-19)
(0.0518097 -0.2717 3.10836e-19)
(0.0216966 -0.239314 3.70134e-19)
(-0.00395043 -0.214443 -7.71395e-20)
(-0.0269897 -0.193324 -1.11227e-19)
(-0.0482562 -0.1743 -1.17878e-18)
(-0.0679235 -0.156619 -1.22577e-19)
(-0.0864298 -0.13959 -4.3733e-20)
(-0.103896 -0.122835 0)
(0.954908 -1.02114 2.53751e-19)
(0.50166 -0.701278 0)
(0.237137 -0.420148 0)
(0.132558 -0.307968 -2.81756e-19)
(0.0792854 -0.256486 3.17328e-19)
(0.0427453 -0.224734 -8.03711e-19)
(0.0129883 -0.200836 0)
(-0.0129087 -0.180771 1.03516e-18)
(-0.0360482 -0.162801 3.43759e-20)
(-0.0570077 -0.14597 1.16822e-18)
(-0.0762463 -0.129624 -1.27908e-18)
(-0.0940968 -0.113253 2.73285e-18)
(1.1534 -0.80172 7.33433e-19)
(0.641392 -0.642698 -1.18626e-19)
(0.304089 -0.384625 -4.21141e-19)
(0.170827 -0.280623 -7.31755e-19)
(0.105013 -0.233133 0)
(0.0617586 -0.204447 7.97255e-19)
(0.0280051 -0.183237 -1.92892e-18)
(-0.000355773 -0.165474 9.96536e-19)
(-0.0250032 -0.149402 1.1864e-18)
(-0.046851 -0.134076 0)
(-0.0664913 -0.118894 -1.30139e-18)
(-0.0843556 -0.103327 -2.71508e-18)
(1.20407 -0.437869 -6.73615e-19)
(0.751217 -0.500625 1.44259e-19)
(0.358816 -0.317028 4.03316e-19)
(0.202396 -0.237383 2.98248e-19)
(0.125783 -0.200837 -5.3091e-20)
(0.0768382 -0.17892 -1.43822e-18)
(0.0399896 -0.162489 1.8744e-18)
(0.00991916 -0.148238 4.27414e-18)
(-0.0156308 -0.134805 -3.32349e-18)
(-0.0378898 -0.121495 -2.43719e-18)
(-0.0575467 -0.10787 2.54932e-18)
(-0.0750875 -0.0934398 0)
(0.988399 0.102183 8.97814e-19)
(0.68947 -0.211958 3.38407e-19)
(0.366672 -0.20191 2.30751e-19)
(0.216553 -0.175563 9.32326e-19)
(0.137292 -0.160482 0)
(0.0860992 -0.149661 9.12618e-19)
(0.0480428 -0.139906 -2.08238e-18)
(0.0174535 -0.130058 -1.00823e-18)
(-0.00823647 -0.119734 -1.11704e-18)
(-0.0303628 -0.108758 2.40937e-18)
(-0.0496647 -0.0969264 1.26215e-18)
(-0.0665592 -0.0839167 4.02029e-18)
(-0.920545 -0.794487 -3.84296e-18)
(-0.983058 -0.734787 4.20693e-18)
(-1.03803 -0.668689 -1.42753e-17)
(-1.0914 -0.602984 4.37613e-17)
(-1.14375 -0.535674 -2.01078e-17)
(-1.2006 -0.470653 0)
(-1.24892 -0.403303 -1.22373e-17)
(-1.29573 -0.336503 9.42887e-18)
(-1.34447 -0.264752 0)
(-1.48383 -0.215905 1.95328e-20)
(-1.55083 -0.216075 0)
(-1.26403 -0.243135 -1.2194e-18)
(-0.339627 -0.312575 -7.5237e-18)
(-0.364173 -0.287281 3.9164e-18)
(-0.388434 -0.261374 4.49143e-18)
(-0.411999 -0.235579 -2.17065e-18)
(-0.435626 -0.210194 0)
(-0.459131 -0.186325 0)
(-0.483668 -0.164318 2.78623e-18)
(-0.514518 -0.146482 -2.82879e-18)
(-0.570171 -0.136606 0)
(-0.693362 -0.149121 1.21246e-18)
(-0.900621 -0.207409 1.03669e-19)
(-1.01983 -0.307987 -4.78886e-18)
(-0.191116 -0.175358 9.00098e-19)
(-0.206649 -0.159425 -1.94159e-18)
(-0.222251 -0.143562 0)
(-0.237867 -0.128024 -2.22193e-18)
(-0.253802 -0.112992 -2.43299e-18)
(-0.270344 -0.0988655 5.00608e-18)
(-0.28869 -0.0859618 -3.90951e-18)
(-0.312659 -0.0750642 0)
(-0.355941 -0.0685926 0)
(-0.457403 -0.0738397 0)
(-0.672185 -0.110203 -1.58458e-18)
(-0.906079 -0.239688 1.39907e-18)
(-0.156653 -0.142407 -7.43934e-19)
(-0.171049 -0.127712 6.73352e-22)
(-0.185606 -0.113139 0)
(-0.200453 -0.0987821 6.19981e-22)
(-0.215862 -0.084737 0)
(-0.232164 -0.0711539 0)
(-0.250201 -0.0581013 1.09851e-18)
(-0.272895 -0.0457214 -1.22595e-18)
(-0.311946 -0.0349986 1.40717e-18)
(-0.406138 -0.0286558 0)
(-0.618898 -0.034178 -1.43495e-18)
(-0.844957 -0.0803463 -6.00411e-18)
(-0.145383 -0.130978 2.94627e-18)
(-0.160328 -0.115698 -7.22086e-19)
(-0.175562 -0.100354 1.72512e-18)
(-0.191193 -0.0850382 1.00557e-18)
(-0.207631 -0.0696658 -2.78424e-18)
(-0.225171 -0.0543755 0)
(-0.244612 -0.039082 -1.06596e-18)
(-0.268395 -0.0237002 0)
(-0.307178 -0.00755916 0)
(-0.400636 0.0120203 1.07374e-18)
(-0.62542 0.0442438 -3.52152e-20)
(-0.914069 0.0541659 7.99334e-18)
(-0.137783 -0.123123 -1.55841e-18)
(-0.153545 -0.106888 -5.21009e-20)
(-0.169482 -0.0904195 0)
(-0.185986 -0.0735787 0)
(-0.203373 -0.0563426 -2.88196e-18)
(-0.222195 -0.038627 1.94849e-18)
(-0.243178 -0.020487 2.12712e-18)
(-0.268589 -0.00129709 1.17874e-18)
(-0.307897 0.021132 -2.64279e-18)
(-0.400331 0.0553726 -1.02053e-18)
(-0.635725 0.127774 0)
(-0.985198 0.225773 9.77997e-18)
(-0.129752 -0.114885 -2.96602e-18)
(-0.146038 -0.0978044 1.51385e-18)
(-0.162401 -0.0802033 1.7188e-18)
(-0.179281 -0.0617914 4.43294e-20)
(-0.197144 -0.0424743 2.09914e-20)
(-0.216634 -0.0221205 -1.97802e-18)
(-0.23863 -0.000558756 -3.15786e-18)
(-0.265147 0.0230777 -1.12306e-18)
(-0.305022 0.0521 1.31335e-18)
(-0.396287 0.101113 0)
(-0.632143 0.212383 3.49063e-18)
(-0.982246 0.412962 -5.94894e-18)
(-0.120734 -0.105806 2.96482e-18)
(-0.137107 -0.0882062 -1.50147e-18)
(-0.153455 -0.0695951 -1.64839e-18)
(-0.170102 -0.0497813 -3.57016e-18)
(-0.187735 -0.0284266 3.67603e-18)
(-0.206998 -0.00535942 -4.03309e-20)
(-0.229 0.0198879 6.17124e-18)
(-0.256064 0.0482455 1.11989e-18)
(-0.295881 0.0846974 1.24479e-18)
(-0.384024 0.149121 0)
(-0.616877 0.299893 -2.13473e-18)
(-0.955711 0.597888 -5.16138e-18)
(-0.110915 -0.0963431 0)
(-0.127031 -0.0784681 1.54818e-18)
(-0.142788 -0.0592254 1.64322e-18)
(-0.158658 -0.0382417 -1.77541e-18)
(-0.175204 -0.0152063 -3.13053e-20)
(-0.193302 0.0104202 -1.89945e-18)
(-0.214091 0.0391792 -2.04702e-18)
(-0.239846 0.0727926 0)
(-0.278106 0.117187 -1.2222e-18)
(-0.361189 0.197952 -8.5549e-19)
(-0.583008 0.388041 4.7838e-18)
(-0.865778 0.761547 -3.79203e-18)
(-0.100814 -0.0868717 0)
(-0.116235 -0.0690915 0)
(-0.130978 -0.0495433 0)
(-0.145466 -0.0278735 -5.10392e-18)
(-0.160249 -0.00357024 3.47279e-18)
(-0.176065 0.0240058 3.71012e-18)
(-0.194084 0.0559597 0)
(-0.216695 0.0945478 -2.03443e-18)
(-0.250246 0.147218 0)
(-0.322041 0.244481 -1.51051e-18)
(-0.523486 0.476508 -8.60819e-19)
(-0.744461 0.927034 -2.88371e-18)
(-0.0908494 -0.07777 0)
(-0.105229 -0.0603942 0)
(-0.118585 -0.0409428 3.14875e-18)
(-0.131254 -0.01906 5.02736e-18)
(-0.143674 0.00583835 -1.12301e-20)
(-0.156331 0.0345596 1.78478e-18)
(-0.170067 0.0686877 -9.63481e-19)
(-0.186565 0.111231 2.97968e-18)
(-0.211155 0.170907 2.1103e-18)
(-0.263607 0.280972 1.42822e-18)
(-0.411 0.548008 -1.44054e-18)
(-0.598239 1.03472 -2.07908e-18)
(-0.0813431 -0.0693123 0)
(-0.094424 -0.0526393 0)
(-0.106145 -0.0336559 -3.11254e-18)
(-0.116762 -0.0120462 1.56108e-18)
(-0.126458 0.0126955 -1.74269e-18)
(-0.135356 0.04154 -1.76394e-18)
(-0.143611 0.076229 1.78162e-18)
(-0.151723 0.120228 0)
(-0.161493 0.182391 -2.06114e-18)
(-0.181596 0.293543 -1.19625e-18)
(-0.246689 0.570099 1.73241e-18)
(-0.300935 1.45825 -2.52231e-18)
(-1.50157 0.27878 -1.04368e-20)
(-1.61984 0.271247 0)
(-1.50334 0.32428 0)
(-1.35567 0.379904 -4.15444e-18)
(-1.26339 0.434003 5.81854e-18)
(-1.20245 0.491464 0)
(-1.14022 0.54891 0)
(-1.08792 0.612443 2.69947e-18)
(-1.02993 0.675013 3.01221e-18)
(-0.972646 0.736751 9.88612e-18)
(-0.909234 0.793666 1.84502e-17)
(-0.851136 0.854668 -3.25266e-18)
(-1.06386 0.32361 -4.22288e-19)
(-0.96884 0.216576 0)
(-0.754133 0.165033 0)
(-0.612822 0.154855 -4.06405e-19)
(-0.539154 0.161541 9.38069e-19)
(-0.49512 0.175026 -3.03333e-18)
(-0.462498 0.192959 2.08384e-18)
(-0.435046 0.213581 6.15542e-19)
(-0.409241 0.236262 -1.37586e-18)
(-0.38408 0.259648 3.83799e-21)
(-0.358905 0.283836 0)
(-0.334172 0.308144 -3.5775e-18)
(-0.901295 0.301697 3.12386e-19)
(-0.727093 0.132008 0)
(-0.500613 0.0840214 0)
(-0.383877 0.0759905 1.40597e-20)
(-0.32868 0.0804896 -1.03605e-20)
(-0.297059 0.0893552 -4.48429e-19)
(-0.274407 0.100499 0)
(-0.255505 0.113065 -1.83132e-18)
(-0.238233 0.126763 1.89509e-18)
(-0.221802 0.141137 -7.24042e-19)
(-0.205752 0.156048 -1.64945e-18)
(-0.189997 0.171195 2.50755e-18)
(-0.916557 0.196701 -2.4068e-19)
(-0.692672 0.0522415 2.12925e-19)
(-0.449232 0.0339894 0)
(-0.337387 0.0380309 1.65015e-19)
(-0.286996 0.0478451 -1.64219e-19)
(-0.258087 0.0591967 3.69548e-19)
(-0.236731 0.0714363 0)
(-0.218581 0.0840439 -4.84538e-19)
(-0.201933 0.0972553 -1.68264e-18)
(-0.186311 0.110705 1.14086e-18)
(-0.171196 0.12456 1.36746e-18)
(-0.156571 0.138494 -2.79404e-18)
(-1.02024 0.0591559 2.82445e-19)
(-0.710319 -0.0348086 -2.00221e-19)
(-0.444872 -0.0124247 1.95415e-19)
(-0.332057 0.007216 0)
(-0.282125 0.0235353 -6.54114e-19)
(-0.25267 0.0388498 6.82656e-19)
(-0.230383 0.0535568 4.17921e-19)
(-0.211055 0.0682986 4.70945e-19)
(-0.193473 0.0828743 0)
(-0.176915 0.097591 0)
(-0.161191 0.112189 0)
(-0.145841 0.126945 -5.90643e-21)
(-1.07955 -0.163114 4.64428e-19)
(-0.723832 -0.135023 0)
(-0.446967 -0.0621434 -1.86242e-19)
(-0.333204 -0.0246339 3.00966e-19)
(-0.282383 -0.000656145 2.81894e-19)
(-0.25166 0.0189909 -8.20663e-19)
(-0.227996 0.0369189 3.635e-19)