/*--------------------------------*- C++ -*----------------------------------*\
  =========                 |
  \\      /  F ield         | OpenFOAM: The Open Source CFD Toolbox
   \\    /   O peration     | Website:  https://openfoam.org
    \\  /    A nd           | Version:  6
     \\/     M anipulation  |
\*---------------------------------------------------------------------------*/
FoamFile
{
    version     2.0;
    format      ascii;
    class       volScalarField;
    location    "500";
    object      epsilon;
}
// * * * * * * * * * * * * * * * * * * * * * * * * * * * * * * * * * * * * * //

dimensions      [0 2 -3 0 0 0 0];

internalField   nonuniform List<scalar> 
3072
(
576.063
314.621
314.621
314.621
314.621
314.621
314.621
314.621
314.621
314.621
314.621
314.621
515.543
140.75
66.6868
52.1363
49.2648
48.7406
48.6452
48.631
48.6342
48.6273
48.6464
48.6542
466.522
112.866
40.9427
26.4558
23.5544
22.9725
22.8662
22.8488
22.8496
22.8552
22.8425
22.8492
426.008
99.6585
35.6967
23.1306
20.7181
20.2435
20.1539
20.1356
20.1343
20.134
20.134
20.1341
391.966
89.5319
32.8368
22.2508
20.2646
19.8918
19.8207
19.8073
19.8042
19.8057
19.8074
19.8061
362.959
81.0999
30.7275
21.7395
20.1
19.8125
19.757
19.7478
19.7452
19.7444
19.7447
19.7476
337.948
73.9819
29.1134
21.3095
20.0036
19.7677
19.7258
19.7174
19.7181
19.7216
19.7255
19.7224
316.16
67.9495
27.6733
21.0312
19.9325
19.7445
19.7093
19.6989
19.7016
19.7027
19.7044
19.7037
297.011
62.915
26.6982
20.7821
19.8736
19.7124
19.6909
19.6845
19.6816
19.6812
19.6867
19.6913
280.049
58.8381
25.8651
20.6682
19.8378
19.6947
19.6693
19.6671
19.6729
19.6694
19.6647
19.6712
264.918
56.1095
25.3486
20.5928
19.8026
19.6913
19.6632
19.659
19.6652
19.6567
19.6494
19.6505
251.339
51.946
24.3834
20.3828
19.7738
19.6769
19.6519
19.6391
19.6458
19.6446
19.6455
19.649
314.621
314.621
314.621
314.621
314.621
314.621
314.621
314.621
314.621
314.621
314.621
576.063
48.6798
48.7107
48.7405
48.7689
48.7924
48.8078
48.8138
48.8082
48.7886
64.4052
141.471
515.543
22.8722
22.8816
22.8833
22.9056
22.9298
22.9265
22.9211
22.9182
22.9235
37.7032
112.426
466.522
20.137
20.1398
20.1427
20.1475
20.1481
20.1491
20.1502
20.1532
20.1529
32.4711
98.7846
426.008
19.8052
19.8054
19.8066
19.8091
19.8112
19.8103
19.8103
19.8112
19.8116
29.8818
88.3846
391.966
19.747
19.7461
19.7483
19.7486
19.7469
19.7492
19.7507
19.7542
19.7523
28.0818
79.6738
362.959
19.7232
19.7224
19.7216
19.7204
19.7213
19.7271
19.7294
19.73
19.7282
26.4495
72.1771
337.948
19.6996
19.7005
19.7054
19.7045
19.7019
19.7086
19.7111
19.7141
19.7118
25.3285
65.7007
316.16
19.6875
19.6883
19.6926
19.6894
19.6895
19.6951
19.6902
19.6913
19.6952
24.272
60.0177
297.011
19.6768
19.6732
19.6698
19.6735
19.6731
19.6755
19.6741
19.674
19.6741
23.5058
55.0107
280.049
19.6581
19.6634
19.6639
19.6575
19.6529
19.6603
19.6668
19.6642
19.6586
22.8176
50.5614
264.918
19.642
19.6375
19.6367
19.6385
19.6454
19.6529
19.6465
19.6432
19.6428
22.2331
44.4616
251.339
576.063
314.621
314.621
314.621
314.621
314.621
314.621
314.621
314.621
314.621
314.621
314.621
515.543
140.993
66.8106
52.1503
49.28
48.7241
48.6491
48.6373
48.6402
48.632
48.6427
48.66
466.522
113.025
41.0767
26.4745
23.5779
23.0055
22.8909
22.8677
22.8696
22.8597
22.8497
22.8659
426.008
99.7541
35.6815
23.1753
20.7214
20.2495
20.1571
20.1415
20.138
20.1353
20.135
20.1374
391.966
89.6042
32.8682
22.2563
20.267
19.8945
19.8206
19.8114
19.8085
19.8086
19.8072
19.8091
362.959
81.1579
30.8083
21.7419
20.1125
19.812
19.7596
19.7491
19.7507
19.7479
19.7538
19.7506
337.948
74.02
29.1771
21.3252
20.007
19.771
19.7309
19.7222
19.7221
19.7244
19.7248
19.7257
316.16
67.9991
27.7541
21.0505
19.9373
19.7389
19.7099
19.7038
19.7001
19.7061
19.7105
19.7108
297.011
62.9198
26.6423
20.8338
19.8832
19.7207
19.6877
19.6877
19.6857
19.6884
19.6946
19.6942
280.049
58.8508
25.8904
20.6802
19.8412
19.7021
19.6744
19.6673
19.667
19.6672
19.6733
19.6715
264.918
55.9573
25.5954
20.5563
19.7977
19.6844
19.6557
19.6583
19.6646
19.6633
19.6576
19.6518
251.339
51.0513
24.5759
20.3358
19.7647
19.6672
19.6413
19.6451
19.6453
19.6391
19.6458
19.6501
314.621
314.621
314.621
314.621
314.621
314.621
314.621
314.621
314.621
314.621
314.621
576.063
48.6862
48.7178
48.7471
48.7744
48.7959
48.8108
48.8179
48.8127
48.7926
64.4058
141.469
515.543
22.8753
22.8885
22.8981
22.9066
22.9118
22.9108
22.9318
22.9386
22.9398
37.6709
112.415
466.522
20.1406
20.1425
20.1452
20.1475
20.1501
20.1517
20.1512
20.1534
20.1519
32.4603
98.7776
426.008
19.8078
19.81
19.8094
19.8124
19.8121
19.8133
19.8112
19.8131
19.8128
29.8922
88.3825
391.966
19.7514
19.7494
19.7513
19.7477
19.75
19.7514
19.7517
19.752
19.7533
28.0674
79.6726
362.959
19.7253
19.7294
19.7265
19.7235
19.7236
19.7256
19.7254
19.7311
19.7316
26.592
72.2484
337.948
19.7065
19.7074
19.7117
19.7085
19.7061
19.7106
19.7121
19.7126
19.7114
25.2613
66.1732
316.16
19.6879
19.685
19.6913
19.6963
19.6958
19.6932
19.6883
19.6925
19.6937
24.3501
60.1727
297.011
19.6662
19.672
19.6735
19.6705
19.6763
19.6823
19.6811
19.6804
19.6751
23.2761
55.6313
280.049
19.6496
19.6523
19.6598
19.6598
19.6573
19.6624
19.6657
19.6655
19.6603
22.7678
50.6663
264.918
19.6425
19.6447
19.6521
19.6538
19.6536
19.6452
19.6402
19.6459
19.6447
22.1716
44.4648
251.339
576.063
314.621
314.621
314.621
314.621
314.621
314.621
314.621
314.621
314.621
314.621
314.621
515.543
140.75
66.691
52.1424
49.2997
48.7475
48.6466
48.6292
48.6139
48.6216
48.6384
48.6573
466.522
112.875
41.012
26.4699
23.567
22.9815
22.8698
22.8593
22.856
22.8455
22.8651
22.8794
426.008
99.6666
35.7577
23.1659
20.7128
20.2424
20.1552
20.1392
20.135
20.1352
20.1358
20.1371
391.966
89.5525
33.0034
22.2459
20.2674
19.8894
19.8198
19.8072
19.8072
19.8078
19.8067
19.807
362.959
81.1248
30.9263
21.7356
20.1019
19.8104
19.7598
19.7523
19.7502
19.7487
19.7479
19.7501
337.948
73.9983
29.2603
21.339
20.0074
19.7719
19.7272
19.7236
19.7265
19.7259
19.7228
19.72
316.16
67.9743
27.9251
21.0441
19.9339
19.746
19.7088
19.7049
19.7086
19.7043
19.7049
19.7079
297.011
62.9323
26.877
20.8334
19.8692
19.7178
19.6905
19.6884
19.6931
19.6868
19.6866
19.6862
280.049
58.8547
26.082
20.6541
19.8266
19.6983
19.6707
19.6663
19.6737
19.6713
19.6663
19.6649
264.918
55.9484
25.4793
20.5155
19.8043
19.6808
19.6557
19.6493
19.6598
19.6641
19.6636
19.6571
251.339
50.9662
24.2926
20.3745
19.7563
19.6623
19.6394
19.6375
19.6476
19.6456
19.647
19.6501
314.621
314.621
314.621
314.621
314.621
314.621
314.621
314.621
314.621
314.621
314.621
576.063
48.6801
48.7112
48.7424
48.7703
48.7919
48.8079
48.8141
48.8085
48.7889
64.4049
141.471
515.543
22.8756
22.8881
22.9136
22.924
22.92
22.9219
22.9237
22.9187
22.923
37.6688
112.438
466.522
20.1391
20.1426
20.1459
20.1462
20.1462
20.15
20.152
20.1535
20.1533
32.364
99.0076
426.008
19.8071
19.8064
19.8084
19.8093
19.8086
19.8093
19.8116
19.8105
19.8103
29.8858
88.4383
391.966
19.7476
19.746
19.746
19.7495
19.7501
19.7514
19.7517
19.7498
19.751
27.9337
80.0002
362.959
19.7241
19.7233
19.7209
19.7212
19.7264
19.7298
19.7277
19.725
19.7266
26.5608
72.2288
337.948
19.7095
19.7099
19.7046
19.7025
19.7066
19.712
19.7107
19.7086
19.7094
25.2878
65.7
316.16
19.6893
19.6931
19.6892
19.6891
19.6892
19.6902
19.6895
19.6879
19.692
24.324
60.0924
297.011
19.6719
19.6737
19.6735
19.6718
19.6688
19.6739
19.6748
19.6741
19.6826
23.189
55.6865
280.049
19.6582
19.6628
19.6581
19.6534
19.6591
19.6643
19.6603
19.6567
19.6597
22.5419
51.3483
264.918
19.6437
19.6371
19.6439
19.6497
19.6441
19.6444
19.6451
19.6489
19.6515
22.2008
44.5707
251.339
576.063
314.621
314.621
314.621
314.621
314.621
314.621
314.621
314.621
314.621
314.621
314.621
515.543
140.756
66.731
52.1448
49.2674
48.7421
48.6463
48.6329
48.6365
48.6428
48.6511
48.6597
466.522
112.874
41.0124
26.4595
23.5759
22.9769
22.8689
22.8584
22.851
22.8562
22.8749
22.8845
426.008
99.6648
35.7511
23.1575
20.713
20.2472
20.1564
20.14
20.134
20.1362
20.1381
20.1396
391.966
89.5398
32.9245
22.2588
20.2664
19.8937
19.8226
19.8101
19.8058
19.8082
19.8087
19.8091
362.959
81.1142
30.9201
21.7286
20.1112
19.8101
19.7613
19.7517
19.7533
19.7489
19.7519
19.7507
337.948
73.9879
29.2622
21.3516
20.0014
19.772
19.7288
19.7255
19.7279
19.7296
19.7286
19.726
316.16
67.9659
27.9234
21.0337
19.9342
19.7394
19.7079
19.7017
19.7069
19.7107
19.7105
19.7103
297.011
62.9066
26.877
20.8295
19.8716
19.7234
19.6981
19.6897
19.6894
19.6894
19.685
19.6844
280.049
58.8353
26.0943
20.658
19.829
19.7058
19.6772
19.6747
19.6743
19.6749
19.6777
19.677
264.918
55.9369
25.6012
20.5309
19.808
19.6876
19.6577
19.6585
19.6659
19.6596
19.6535
19.653
251.339
51.0227
24.4708
20.3293
19.7652
19.6747
19.6489
19.6385
19.6469
19.6531
19.6525
19.6503
314.621
314.621
314.621
314.621
314.621
314.621
314.621
314.621
314.621
314.621
314.621
576.063
48.6798
48.7106
48.741
48.768
48.7897
48.8059
48.8135
48.8088
48.7882
64.4041
141.471
515.543
22.8939
22.9032
22.9111
22.907
22.9003
22.9127
22.931
22.9357
22.9252
37.6156
112.43
466.522
20.1425
20.1452
20.1475
20.1454
20.1468
20.1473
20.1513
20.1537
20.1533
32.4175
99.017
426.008
19.808
19.8098
19.8095
19.8107
19.8085
19.8102
19.8109
19.8128
19.8117
29.9446
88.4512
391.966
19.7506
19.7497
19.7539
19.7527
19.7521
19.7516
19.753
19.7523
19.7538
27.8915
80.0027
362.959
19.7219
19.7222
19.7223
19.7248
19.7282
19.7293
19.7298
19.7299
19.7298
26.5571
72.2886
337.948
19.7095
19.7051
19.7032
19.7077
19.7095
19.7105
19.7125
19.709
19.7086
25.2582
66.184
316.16
19.6834
19.6845
19.6895
19.6896
19.6904
19.6907
19.6872
19.688
19.6921
24.35
60.1095
297.011
19.6726
19.6734
19.6734
19.669
19.6673
19.6744
19.6761
19.6777
19.6821
23.522
55.1236
280.049
19.6582
19.6574
19.6597
19.6585
19.6506
19.6593
19.6623
19.6567
19.6627
22.6063
51.2854
264.918
19.6446
19.6396
19.6457
19.6447
19.6377
19.6475
19.6462
19.6401
19.645
22.2142
44.5654
251.339
58.6561
28.2977
21.4775
19.9531
19.7054
19.657
19.6362
19.6263
19.6259
19.6327
19.6377
19.6314
26.5229
21.6904
20.1702
19.7359
19.6557
19.6337
19.6164
19.6231
19.6286
19.6192
19.6104
19.6204
20.8462
20.1008
19.7618
19.6392
19.6138
19.6175
19.6117
19.6137
19.6128
19.6003
19.5981
19.6082
19.8582
19.723
19.645
19.6153
19.606
19.6059
19.6025
19.6041
19.6108
19.5988
19.5983
19.5969
19.6241
19.6304
19.6304
19.6333
19.6392
19.6322
19.6221
19.6256
19.6244
20.3362
27.3109
71.9944
19.6261
19.6201
19.6223
19.6192
19.6129
19.6108
19.6128
19.6219
19.619
19.8037
21.4022
29.9117
19.6072
19.6087
19.6165
19.6068
19.6094
19.6167
19.6221
19.6118
19.6007
19.6384
19.9925
21.4028
19.5873
19.5871
19.5885
19.587
19.5986
19.5991
19.6057
19.6007
19.5897
19.6077
19.6786
19.9219
58.6206
29.0117
21.4138
19.9396
19.7021
19.6542
19.6319
19.6252
19.6312
19.6316
19.6326
19.632
26.0768
21.8561
20.1548
19.7362
19.6556
19.6309
19.6126
19.6123
19.6132
19.6212
19.6206
19.6209
20.8744
20.0903
19.7613
19.6529
19.6223
19.6155
19.6087
19.6094
19.6183
19.6124
19.6128
19.6082
19.8502
19.7059
19.6449
19.6268
19.6081
19.5952
19.5903
19.5902
19.6026
19.6106
19.6107
19.5988
19.6229
19.624
19.6266
19.6252
19.6276
19.6342
19.6422
19.645
19.6339
20.3477
27.1195
71.7963
19.6169
19.6211
19.6276
19.6206
19.6215
19.6291
19.6265
19.6155
19.6167
19.802
21.3918
29.1972
19.5981
19.6082
19.6085
19.6099
19.6078
19.6127
19.6205
19.6098
19.616
19.6551
20.0141
21.2596
19.5868
19.5874
19.5875
19.5878
19.5881
19.6004
19.601
19.6023
19.6019
19.6161
19.684
19.899
58.642
28.6462
21.5078
19.9558
19.6994
19.6419
19.6235
19.6315
19.6397
19.631
19.6311
19.6314
26.1792
21.7412
20.1654
19.7444
19.6428
19.619
19.6104
19.6112
19.6139
19.6098
19.6108
19.6208
20.7959
20.0953
19.7591
19.6651
19.6347
19.6258
19.6103
19.6089
19.6179
19.6076
19.6098
19.6198
19.8391
19.7146
19.6525
19.632
19.6132
19.6098
19.602
19.5904
19.6022
19.5989
19.6007
19.6098
19.6311
19.6294
19.6239
19.6252
19.6216
19.622
19.6266
19.6364
19.6378
20.3344
27.1439
71.8482
19.6203
19.6209
19.6285
19.6298
19.6181
19.62
19.6291
19.6239
19.6223
19.7799
21.5914
28.9059
19.6183
19.6081
19.6115
19.6184
19.6103
19.6119
19.6137
19.6124
19.6249
19.6568
20.0138
21.3006
19.5999
19.5886
19.5884
19.5889
19.6005
19.6108
19.6121
19.5992
19.5933
19.6007
19.6905
19.9078
58.6521
29.0048
21.3927
19.9632
19.691
19.6549
19.636
19.6259
19.6269
19.6336
19.6308
19.6235
26.1438
21.7809
20.1675
19.7275
19.638
19.6318
19.622
19.6227
19.63
19.6206
19.6092
19.6091
20.827
20.0763
19.759
19.64
19.6203
19.6162
19.6
19.6092
19.6201
19.6113
19.6005
19.6091
19.8406
19.7106
19.6426
19.6151
19.6145
19.605
19.5896
19.5898
19.6027
19.6098
19.6093
19.61
19.6312
19.6379
19.632
19.6328
19.6377
19.6417
19.6336
19.6293
19.6396
20.3713
27.0211
71.7667
19.6094
19.6097
19.6106
19.6102
19.6127
19.6239
19.6302
19.6207
19.6185
19.8082
21.2967
29.3154
19.6079
19.598
19.6057
19.6043
19.6084
19.6201
19.6114
19.6022
19.6008
19.6502
19.9748
21.3757
19.609
19.597
19.5874
19.5859
19.5879
19.6012
19.5979
19.6017
19.5958
19.5951
19.6686
19.9173
19.6463
19.6122
19.5965
19.59
19.587
19.5861
19.5847
19.5842
19.5853
19.583
19.5826
19.5807
19.596
19.5825
19.576
19.5759
19.5768
19.5745
19.5736
19.5736
19.5738
19.5732
19.5715
19.5703
19.5782
19.569
19.5667
19.5659
19.5671
19.5648
19.5644
19.5641
19.5638
19.5632
19.5629
24.8652
19.5681
19.5578
19.5586
19.5562
19.5571
19.5555
19.5551
19.5555
19.5551
19.5544
22.8273
51.2227
19.5784
19.5792
19.5795
19.5795
19.5821
19.5824
19.5848
19.5841
19.5812
19.5839
19.6027
19.6446
19.5705
19.5704
19.5707
19.5705
19.5708
19.5709
19.5715
19.5716
19.5708
19.573
19.5763
19.5864
25.6429
20.2529
19.621
19.5665
19.5615
19.5608
19.5624
19.5627
19.5611
19.563
19.5631
19.568
51.9052
23.1263
19.8609
19.5781
19.5557
19.5532
19.5553
19.5555
19.5544
19.5549
19.5548
19.557
19.6459
19.6106
19.5986
19.5917
19.5887
19.5835
19.5818
19.5823
19.5831
19.5843
19.585
19.5816
19.5957
19.5824
19.5775
19.5764
19.577
19.5739
19.5742
19.5727
19.5725
19.5726
19.5719
19.5721
19.5786
19.5675
19.5653
19.5656
19.567
19.5645
19.5642
19.5636
19.5628
19.5628
19.5626
24.8813
19.5701
19.5572
19.555
19.5571
19.5584
19.5554
19.5552
19.5558
19.5555
19.5545
22.8265
51.2243
19.5801
19.5797
19.5792
19.5803
19.5799
19.5817
19.5818
19.5839
19.5828
19.5863
19.6011
19.6418
19.5711
19.5703
19.5696
19.5712
19.5717
19.5708
19.5691
19.5706
19.5722
19.5699
19.5748
19.5843
25.6522
20.2512
19.6225
19.5667
19.5625
19.5627
19.5616
19.5603
19.5618
19.561
19.5633
19.5677
51.846
23.1573
19.8622
19.5768
19.5554
19.5541
19.5546
19.5538
19.554
19.553
19.5552
19.5568
19.6417
19.6123
19.5985
19.5925
19.5882
19.5885
19.5846
19.5813
19.5839
19.5818
19.5813
19.5835
19.5982
19.5824
19.5803
19.5774
19.5754
19.5761
19.5736
19.5722
19.5727
19.572
19.5711
19.572
19.5806
19.5686
19.5687
19.5681
19.5657
19.5652
19.5643
19.5636
19.5636
19.5627
19.5626
24.8374
19.5706
19.5587
19.5589
19.5579
19.5572
19.5568
19.5561
19.5559
19.5554
19.5542
22.8322
51.2763
19.5817
19.5798
19.5794
19.5791
19.5809
19.5838
19.5855
19.5802
19.5809
19.5845
19.6068
19.6454
19.5711
19.5699
19.5701
19.5709
19.5703
19.5717
19.5716
19.571
19.5711
19.5732
19.5784
19.5855
25.6445
20.2454
19.6207
19.5666
19.5615
19.5621
19.5611
19.5633
19.5627
19.5636
19.5653
19.5674
51.9036
23.1275
19.86
19.5778
19.5557
19.5532
19.5539
19.5541
19.5541
19.5539
19.5558
19.5566
19.6434
19.6131
19.5957
19.5885
19.5851
19.5845
19.5817
19.5814
19.5829
19.5834
19.5833
19.5829
19.5968
19.5806
19.5761
19.5751
19.5724
19.5733
19.5722
19.571
19.5716
19.5717
19.5719
19.5731
19.5786
19.567
19.5661
19.5665
19.5644
19.5639
19.5633
19.5632
19.5633
19.5632
19.5634
24.8609
19.57
19.5575
19.5565
19.557
19.5562
19.5548
19.5547
19.5555
19.5546
19.5546
22.8254
51.2814
19.5832
19.5818
19.5801
19.5798
19.5793
19.5817
19.5812
19.5817
19.5808
19.5788
19.599
19.6449
19.5717
19.5705
19.5703
19.5701
19.5691
19.5706
19.5703
19.5706
19.5719
19.5687
19.5757
19.5856
25.639
20.2594
19.622
19.5659
19.561
19.5616
19.5616
19.5627
19.5634
19.562
19.5634
19.5655
51.8592
23.1578
19.8619
19.577
19.555
19.5535
19.5543
19.5535
19.5553
19.554
19.5553
19.5559
19.5607
19.5496
19.5501
19.5483
19.5491
19.5488
19.5474
19.5476
19.5476
20.0118
30.4147
171.989
19.5533
19.5428
19.5418
19.5411
19.5421
19.5426
19.5405
19.5407
19.541
20.1079
30.9737
166.16
19.5462
19.5364
19.5352
19.5349
19.5354
19.5359
19.5342
19.5346
19.5343
20.0706
30.288
160.713
19.5407
19.5298
19.5283
19.5289
19.5298
19.5291
19.5287
19.5287
19.5285
20.0053
29.4512
155.612
19.5338
19.5234
19.5226
19.5235
19.5242
19.523
19.523
19.5228
19.5227
19.9414
28.6599
150.824
19.5282
19.518
19.518
19.5182
19.5186
19.5175
19.5179
19.5177
19.5176
19.8847
27.9415
146.323
19.5234
19.5132
19.513
19.5133
19.5139
19.5128
19.5131
19.5129
19.5129
19.8352
27.2926
142.082
19.5184
19.5088
19.5084
19.5086
19.5091
19.5083
19.5083
19.5084
19.5084
19.7923
26.7057
138.081
19.5141
19.5045
19.5047
19.5041
19.5054
19.5037
19.5049
19.5036
19.5046
19.7545
26.1737
134.298
33.0473
33.9689
34.0246
34.0323
34.0221
34.0317
34.026
34.0265
34.0169
34.233
40.1926
130.717
90.9352
91.2879
91.3359
91.3587
91.3727
91.382
91.3841
91.3776
91.364
91.5411
93.9824
127.322
322.149
322.149
322.149
322.149
322.149
322.149
322.149
322.149
322.149
322.149
322.149
322.149
171.989
30.2396
20.2927
19.5972
19.5496
19.5465
19.5468
19.547
19.5467
19.5473
19.5465
19.5492
166.16
30.782
20.3626
19.5974
19.5433
19.5399
19.5392
19.5402
19.5399
19.5406
19.5394
19.542
160.713
30.1511
20.3023
19.587
19.537
19.5332
19.5338
19.5349
19.5343
19.5335
19.5332
19.5349
155.612
29.3655
20.2133
19.5741
19.5306
19.5279
19.5287
19.5288
19.5282
19.5279
19.5278
19.5297
150.824
28.6031
20.1303
19.5619
19.5243
19.5229
19.5231
19.5225
19.5223
19.5219
19.5224
19.524
146.323
27.9075
20.0536
19.5505
19.5187
19.5179
19.5175
19.517
19.517
19.5173
19.5174
19.5189
142.082
27.2723
19.9869
19.5405
19.5136
19.5131
19.5123
19.5127
19.5119
19.5129
19.5128
19.5138
138.081
26.6941
19.9285
19.5318
19.509
19.5084
19.5081
19.5086
19.5083
19.5084
19.5082
19.5092
134.298
26.1677
19.8772
19.5244
19.5043
19.5045
19.5034
19.5054
19.503
19.5057
19.5043
19.505
130.717
39.2309
34.2881
34.012
33.9929
33.9821
33.9776
33.9764
33.9835
33.9678
33.9656
33.9884
127.322
93.6118
91.465
91.3185
91.3101
91.2952
91.2805
91.2682
91.2586
91.2499
91.2481
91.1848
322.149
322.149
322.149
322.149
322.149
322.149
322.149
322.149
322.149
322.149
322.149
322.149
19.561
19.5497
19.5485
19.549
19.5492
19.5478
19.5481
19.548
19.5478
20.0115
30.42
171.989
19.5535
19.5429
19.5413
19.5422
19.5425
19.5419
19.5414
19.5419
19.5413
20.1074
30.9705
166.16
19.5466
19.5359
19.5356
19.5354
19.5363
19.5359
19.5344
19.5349
19.5346
20.0703
30.2841
160.713
19.5397
19.5293
19.5298
19.5296
19.5302
19.5294
19.5285
19.529
19.5288
20.0054
29.4477
155.612
19.5339
19.5243
19.5244
19.5238
19.5236
19.5231
19.5229
19.5236
19.5231
19.9414
28.6571
150.824
19.5288
19.5188
19.5186
19.5188
19.5181
19.5179
19.5179
19.5182
19.5178
19.8848
27.9392
146.323
19.5239
19.5136
19.5133
19.5137
19.5138
19.5134
19.5135
19.5133
19.5131
19.8354
27.2908
142.082
19.519
19.5092
19.5088
19.5091
19.5094
19.5093
19.5092
19.5089
19.5088
19.7926
26.7043
138.081
19.5143
19.5053
19.5052
19.5038
19.5058
19.5043
19.5057
19.5044
19.505
19.7552
26.1725
134.298
33.018
33.9598
34.0223
34.0144
34.0306
34.0341
34.0262
34.0221
34.0167
34.2333
40.1913
130.717
90.924
91.2807
91.3276
91.3472
91.3704
91.3785
91.3813
91.3753
91.3638
91.543
93.9816
127.322
322.149
322.149
322.149
322.149
322.149
322.149
322.149
322.149
322.149
322.149
322.149
322.149
171.989
30.2584
20.2869
19.5968
19.5499
19.5467
19.5463
19.5474
19.5476
19.5455
19.5459
19.5481
166.16
30.7834
20.3615
19.5968
19.5431
19.5403
19.5388
19.5404
19.5396
19.539
19.5404
19.5417
160.713
30.1496
20.302
19.5866
19.5369
19.5334
19.5332
19.5335
19.5324
19.5323
19.5335
19.5354
155.612
29.3637
20.213
19.5737
19.5307
19.527
19.5274
19.5278
19.5272
19.5268
19.5274
19.5288
150.824
28.6016
20.1299
19.5617
19.5243
19.5216
19.5215
19.5223
19.5219
19.5215
19.5224
19.5235
146.323
27.9059
20.0533
19.5504
19.5188
19.5169
19.5166
19.5173
19.5172
19.5173
19.5177
19.5183
142.082
27.2696
19.9874
19.5405
19.5137
19.5122
19.5122
19.5128
19.5123
19.5127
19.5127
19.5134
138.081
26.692
19.9289
19.5319
19.5089
19.5079
19.5079
19.5086
19.5084
19.5081
19.5085
19.5094
134.298
26.1668
19.8775
19.5239
19.5049
19.5037
19.504
19.5043
19.5043
19.5041
19.504
19.505
130.717
39.2327
34.2885
34.0161
33.9947
33.9846
33.9872
33.9773
33.975
33.964
33.968
33.9909
127.322
93.6153
91.4665
91.3217
91.313
91.2757
91.2853
91.2717
91.2613
91.2531
91.2523
91.1844
322.149
322.149
322.149
322.149
322.149
322.149
322.149
322.149
322.149
322.149
322.149
322.149
19.5613
19.5502
19.5498
19.5497
19.5503
19.5497
19.5485
19.5478
19.5476
20.0116
30.4141
171.989
19.5542
19.5423
19.5423
19.5431
19.5422
19.5418
19.5406
19.5404
19.5406
20.1077
30.9724
166.16
19.5468
19.5356
19.536
19.5363
19.5355
19.5345
19.5341
19.5341
19.5344
20.0702
30.287
160.713
19.5408
19.5298
19.5295
19.5293
19.53
19.5289
19.5286
19.5282
19.5285
20.0051
29.4505
155.612
19.5345
19.5244
19.5238
19.523
19.524
19.5234
19.5229
19.5226
19.5226
19.9414
28.6594
150.824
19.5294
19.5188
19.5182
19.518
19.5187
19.5182
19.5175
19.5175
19.5176
19.8846
27.941
146.323
19.5241
19.5137
19.513
19.513
19.5137
19.5136
19.5127
19.5128
19.5128
19.8351
27.2922
142.082
19.5186
19.5091
19.5086
19.5082
19.5087
19.5087
19.5082
19.5084
19.5083
19.7922
26.7053
138.081
19.5141
19.5052
19.5046
19.504
19.5048
19.504
19.5047
19.5035
19.5045
19.7545
26.1733
134.298
33.0216
33.957
34.0136
34.0192
34.0213
34.0241
34.0257
34.0267
34.0171
34.2333
40.1926
130.717
90.9286
91.2848
91.3325
91.3554
91.3716
91.38
91.3835
91.3776
91.3642
91.5418
93.9829
127.322
322.149
322.149
322.149
322.149
322.149
322.149
322.149
322.149
322.149
322.149
322.149
322.149
171.989
30.2564
20.285
19.5978
19.5496
19.5457
19.5465
19.5457
19.5469
19.5458
19.5476
19.5487
166.16
30.7966
20.3563
19.5981
19.5433
19.5399
19.54
19.5399
19.5399
19.5403
19.5412
19.542
160.713
30.1535
20.3016
19.5875
19.5371
19.5337
19.5336
19.5345
19.534
19.534
19.5343
19.5353
155.612
29.3619
20.2153
19.5746
19.5307
19.5279
19.5272
19.5289
19.5284
19.5279
19.5277
19.5289
150.824
28.6058
20.1293
19.5619
19.5247
19.5223
19.5217
19.5233
19.5229
19.522
19.5219
19.5232
146.323
27.908
20.0536
19.5507
19.5194
19.5174
19.5168
19.5182
19.5178
19.5171
19.5172
19.5185
142.082
27.2711
19.9875
19.5407
19.514
19.5127
19.5122
19.5132
19.5124
19.5122
19.5125
19.5134
138.081
26.6939
19.9287
19.5319
19.5091
19.5083
19.5083
19.5088
19.5083
19.5082
19.5082
19.509
134.298
26.1672
19.8775
19.5243
19.5044
19.5045
19.5033
19.5054
19.5031
19.5051
19.5038
19.5047
130.717
39.2321
34.289
34.0163
33.9936
33.9873
33.9843
33.9769
33.9861
33.9681
33.966
33.9911
127.322
93.6126
91.4656
91.3201
91.3101
91.2743
91.2818
91.2682
91.2338
91.25
91.2487
91.1799
322.149
322.149
322.149
322.149
322.149
322.149
322.149
322.149
322.149
322.149
322.149
322.149
19.5609
19.5483
19.548
19.5489
19.5485
19.5481
19.5469
19.5472
19.5472
20.0117
30.4205
171.989
19.5526
19.5421
19.5408
19.5417
19.5418
19.5413
19.5402
19.5404
19.5408
20.1072
30.9713
166.16
19.5463
19.536
19.5349
19.5346
19.535
19.5348
19.5343
19.5339
19.5341
20.07
30.2845
160.713
19.54
19.5289
19.5286
19.529
19.5289
19.5289
19.5286
19.5281
19.5287
20.005
29.4477
155.612
19.5341
19.5239
19.5236
19.5232
19.5228
19.5233
19.5231
19.5226
19.5229
19.9411
28.6569
150.824
19.5283
19.5185
19.5186
19.518
19.518
19.518
19.5182
19.5178
19.5177
19.8845
27.9388
146.323
19.5239
19.5139
19.5134
19.5133
19.5138
19.5132
19.5133
19.513
19.5128
19.8351
27.2903
142.082
19.5192
19.5095
19.5089
19.5089
19.5093
19.5091
19.5087
19.5084
19.5085
19.7923
26.7036
138.081
19.5142
19.5053
19.5048
19.5033
19.506
19.504
19.5051
19.504
19.5046
19.7549
26.1717
134.298
33.0193
33.9604
34.0227
34.0308
34.0276
34.0302
34.0306
34.0273
34.0179
34.2345
40.192
130.717
90.9247
91.2822
91.3286
91.3508
91.3701
91.3778
91.3821
91.3768
91.3649
91.5448
93.9836
127.322
322.149
322.149
322.149
322.149
322.149
322.149
322.149
322.149
322.149
322.149
322.149
322.149
171.989
30.2586
20.286
19.5967
19.55
19.5454
19.5461
19.5452
19.5466
19.5464
19.5463
19.5477
166.16
30.7928
20.3562
19.5966
19.5433
19.5385
19.5383
19.5391
19.5384
19.5391
19.5394
19.5419
160.713
30.1499
20.3008
19.5868
19.5368
19.5324
19.5322
19.5337
19.5326
19.5326
19.5331
19.5351
155.612
29.363
20.2122
19.5736
19.5305
19.5267
19.5271
19.5281
19.5276
19.5274
19.5284
19.529
150.824
28.6034
20.1282
19.5614
19.5242
19.5219
19.5217
19.5225
19.5223
19.5218
19.5223
19.523
146.323
27.9034
20.0537
19.5502
19.5186
19.5171
19.5166
19.517
19.5171
19.5168
19.5171
19.518
142.082
27.2701
19.9865
19.5404
19.5135
19.5124
19.5118
19.5122
19.5119
19.5125
19.5127
19.5134
138.081
26.6925
19.928
19.5315
19.5087
19.5078
19.5075
19.5081
19.5078
19.5081
19.5084
19.509
134.298
26.1664
19.8772
19.5236
19.5049
19.5032
19.5039
19.5038
19.504
19.5039
19.5042
19.5047
130.717
39.2308
34.2889
34.0165
33.9915
33.9817
33.9817
33.9763
33.9749
33.964
33.9681
33.9922
127.322
93.6142
91.4658
91.3215
91.3116
91.274
91.2583
91.244
91.2601
91.2525
91.2522
91.1897
322.149
322.149
322.149
322.149
322.149
322.149
322.149
322.149
322.149
322.149
322.149
322.149
)
;

boundaryField
{
    rotor
    {
        type            epsilonWallFunction;
        Cmu             0.09;
        kappa           0.41;
        E               9.8;
        value           nonuniform List<scalar> 
192
(
576.063
314.621
314.621
314.621
314.621
314.621
314.621
314.621
314.621
314.621
314.621
314.621
314.621
314.621
314.621
314.621
314.621
314.621
314.621
314.621
314.621
314.621
314.621
576.063
576.063
314.621
314.621
314.621
314.621
314.621
314.621
314.621
314.621
314.621
314.621
314.621
314.621
314.621
314.621
314.621
314.621
314.621
314.621
314.621
314.621
314.621
314.621
576.063
576.063
314.621
314.621
314.621
314.621
314.621
314.621
314.621
314.621
314.621
314.621
314.621
314.621
314.621
314.621
314.621
314.621
314.621
314.621
314.621
314.621
314.621
314.621
576.063
576.063
314.621
314.621
314.621
314.621
314.621
314.621
314.621
314.621
314.621
314.621
314.621
314.621
314.621
314.621
314.621
314.621
314.621
314.621
314.621
314.621
314.621
314.621
576.063
576.063
515.543
466.522
426.008
391.966
362.959
337.948
316.16
297.011
280.049
264.918
251.339
576.063
515.543
466.522
426.008
391.966
362.959
337.948
316.16
297.011
280.049
264.918
251.339
576.063
515.543
466.522
426.008
391.966
362.959
337.948
316.16
297.011
280.049
264.918
251.339
576.063
515.543
466.522
426.008
391.966
362.959
337.948
316.16
297.011
280.049
264.918
251.339
576.063
515.543
466.522
426.008
391.966
362.959
337.948
316.16
297.011
280.049
264.918
251.339
576.063
515.543
466.522
426.008
391.966
362.959
337.948
316.16
297.011
280.049
264.918
251.339
576.063
515.543
466.522
426.008
391.966
362.959
337.948
316.16
297.011
280.049
264.918
251.339
576.063
515.543
466.522
426.008
391.966
362.959
337.948
316.16
297.011
280.049
264.918
251.339
)
;
    }
    stator
    {
        type            epsilonWallFunction;
        Cmu             0.09;
        kappa           0.41;
        E               9.8;
        value           nonuniform List<scalar> 
192
(
322.149
322.149
322.149
322.149
322.149
322.149
322.149
322.149
322.149
322.149
322.149
322.149
322.149
322.149
322.149
322.149
322.149
322.149
322.149
322.149
322.149
322.149
322.149
322.149
322.149
322.149
322.149
322.149
322.149
322.149
322.149
322.149
322.149
322.149
322.149
322.149
322.149
322.149
322.149
322.149
322.149
322.149
322.149
322.149
322.149
322.149
322.149
322.149
322.149
322.149
322.149
322.149
322.149
322.149
322.149
322.149
322.149
322.149
322.149
322.149
322.149
322.149
322.149
322.149
322.149
322.149
322.149
322.149
322.149
322.149
322.149
322.149
322.149
322.149
322.149
322.149
322.149
322.149
322.149
322.149
322.149
322.149
322.149
322.149
322.149
322.149
322.149
322.149
322.149
322.149
322.149
322.149
322.149
322.149
322.149
322.149
171.989
166.16
160.713
155.612
150.824
146.323
142.082
138.081
134.298
130.717
127.322
322.149
171.989
166.16
160.713
155.612
150.824
146.323
142.082
138.081
134.298
130.717
127.322
322.149
171.989
166.16
160.713
155.612
150.824
146.323
142.082
138.081
134.298
130.717
127.322
322.149
171.989
166.16
160.713
155.612
150.824
146.323
142.082
138.081
134.298
130.717
127.322
322.149
171.989
166.16
160.713
155.612
150.824
146.323
142.082
138.081
134.298
130.717
127.322
322.149
171.989
166.16
160.713
155.612
150.824
146.323
142.082
138.081
134.298
130.717
127.322
322.149
171.989
166.16
160.713
155.612
150.824
146.323
142.082
138.081
134.298
130.717
127.322
322.149
171.989
166.16
160.713
155.612
150.824
146.323
142.082
138.081
134.298
130.717
127.322
322.149
)
;
    }
    front
    {
        type            empty;
    }
    back
    {
        type            empty;
    }
}


// ************************************************************************* //
