/*--------------------------------*- C++ -*----------------------------------*\
  =========                 |
  \\      /  F ield         | OpenFOAM: The Open Source CFD Toolbox
   \\    /   O peration     | Website:  https://openfoam.org
    \\  /    A nd           | Version:  6
     \\/     M anipulation  |
\*---------------------------------------------------------------------------*/
FoamFile
{
    version     2.0;
    format      ascii;
    class       volScalarField;
    location    "500";
    object      nut;
}
// * * * * * * * * * * * * * * * * * * * * * * * * * * * * * * * * * * * * * //

dimensions      [0 2 -1 0 0 0 0];

internalField   nonuniform List<scalar> 
3072
(
0.000127119
0.000254947
0.000260267
0.000261523
0.00026184
0.000261909
0.000261951
0.000261957
0.000261967
0.000261968
0.000261988
0.000261983
0.000144999
0.000593454
0.0013006
0.00168143
0.00178443
0.00180483
0.00180874
0.00180928
0.00180915
0.00180941
0.00180886
0.00180864
0.000160195
0.000745041
0.00214045
0.00335259
0.00377773
0.00387649
0.00389522
0.00389827
0.00389821
0.00389728
0.00389951
0.00389838
0.000175193
0.000845101
0.00245927
0.00384021
0.00430053
0.00440453
0.00442504
0.00442908
0.00442955
0.00442977
0.00442973
0.00442972
0.000190205
0.000941505
0.00267459
0.00399165
0.00439514
0.00448013
0.00449661
0.00449968
0.00450046
0.00450026
0.00450023
0.0045008
0.000205457
0.00104101
0.00285945
0.00408402
0.00442775
0.00449444
0.00450747
0.00450977
0.00451041
0.00451091
0.00451067
0.00451039
0.000220919
0.00114359
0.00301834
0.00416455
0.00444619
0.004501
0.0045111
0.00451278
0.00451329
0.00451279
0.00451167
0.00451234
0.000236645
0.00124772
0.0031769
0.00421848
0.0044594
0.00450393
0.00451158
0.00451343
0.00451377
0.00451407
0.00451367
0.0045133
0.000252507
0.00134954
0.00329382
0.00426792
0.00447009
0.00450803
0.00451278
0.00451424
0.00451575
0.0045153
0.00451427
0.00451373
0.000268646
0.00144459
0.00340153
0.00429013
0.00447663
0.00450963
0.00451431
0.00451497
0.00451456
0.00451502
0.00451624
0.00451542
0.00028504
0.00151913
0.00347154
0.00430523
0.0044835
0.00450893
0.00451406
0.00451501
0.00451421
0.00451514
0.00451606
0.00451596
0.000308023
0.0016552
0.00361617
0.00434918
0.00448832
0.00450941
0.00451348
0.00451596
0.00451416
0.0045147
0.00451561
0.00451541
0.000261992
0.000261982
0.000261989
0.000261978
0.000261992
0.000261961
0.000261947
0.000261944
0.000261927
0.000261876
0.000255648
0.000125884
0.00180759
0.00180629
0.00180519
0.00180423
0.00180348
0.00180287
0.00180255
0.0018027
0.00180251
0.00135737
0.000593824
0.000144387
0.00389446
0.00389284
0.00389268
0.00388874
0.00388449
0.00388503
0.003886
0.00388662
0.00388332
0.00234446
0.000753411
0.000159831
0.00442906
0.00442828
0.00442769
0.00442662
0.00442652
0.00442649
0.00442649
0.00442582
0.00442325
0.00272653
0.000859159
0.000174878
0.00450089
0.00450082
0.00450065
0.00450012
0.00449956
0.0044997
0.00449998
0.00449983
0.0044974
0.00296311
0.000961879
0.000190142
0.00451079
0.00451092
0.00451039
0.00451041
0.00451041
0.00451011
0.00451007
0.00450984
0.00450813
0.00315229
0.00106844
0.000205422
0.00451285
0.004513
0.00451305
0.00451336
0.00451314
0.00451207
0.00451158
0.00451155
0.00451044
0.00334712
0.00118203
0.000221067
0.00451372
0.00451369
0.00451327
0.00451368
0.00451376
0.00451311
0.00451252
0.00451172
0.00451112
0.00349433
0.00130179
0.000237303
0.00451388
0.00451383
0.00451374
0.00451417
0.00451407
0.00451358
0.00451414
0.00451347
0.00451213
0.00364634
0.00142871
0.000253566
0.0045134
0.00451376
0.00451567
0.00451541
0.00451483
0.00451461
0.00451473
0.00451457
0.00451526
0.0037661
0.00156045
0.000269757
0.0045151
0.00451461
0.00451478
0.00451533
0.00451585
0.00451545
0.00451472
0.00451503
0.0045158
0.00387996
0.00170585
0.000286935
0.004516
0.00451636
0.00451652
0.00451603
0.0045154
0.00451521
0.00451592
0.00451661
0.00451712
0.00398298
0.0019544
0.000309364
0.000126446
0.00025463
0.000260221
0.000261516
0.00026186
0.0002619
0.00026194
0.000261925
0.000261961
0.000261987
0.000262034
0.000261983
0.000144935
0.000592234
0.00129802
0.00168092
0.001784
0.00180559
0.0018087
0.00180913
0.00180907
0.00180926
0.00180892
0.00180832
0.000160184
0.000743812
0.00213326
0.00335023
0.00377398
0.00387079
0.00389115
0.00389528
0.0038952
0.00389676
0.00389858
0.00389558
0.000175262
0.000844107
0.0024602
0.00383301
0.00430031
0.00440368
0.00442459
0.00442797
0.0044291
0.00442956
0.0044298
0.00442935
0.000190397
0.000940819
0.00267206
0.00399087
0.00439471
0.00448009
0.00449715
0.00450006
0.00450034
0.00450052
0.00450051
0.00450069
0.000205661
0.00104036
0.00285171
0.00408309
0.00442543
0.00449465
0.00450787
0.00450972
0.0045101
0.0045102
0.00450987
0.00450947
0.000221626
0.00114342
0.00301174
0.00416151
0.00444545
0.0045013
0.00451049
0.00451248
0.00451251
0.0045128
0.00451192
0.00451155
0.000237754
0.00124776
0.00316746
0.00421474
0.00445817
0.00450513
0.00451184
0.00451276
0.00451451
0.00451366
0.00451202
0.00451188
0.000254244
0.00135098
0.00330301
0.00425798
0.00446815
0.00450629
0.00451455
0.00451473
0.00451539
0.00451459
0.00451253
0.004512
0.000270789
0.00144708
0.00339959
0.00428822
0.00447604
0.00450761
0.00451373
0.00451609
0.00451609
0.0045154
0.00451478
0.00451579
0.000286873
0.00152562
0.00344039
0.00431381
0.0044847
0.0045099
0.00451636
0.00451604
0.00451468
0.00451501
0.00451657
0.00451804
0.000311342
0.00169035
0.00358907
0.00435967
0.00449038
0.00451275
0.00451701
0.0045148
0.00451474
0.00451649
0.00451619
0.00451604
0.000261967
0.00026198
0.000261994
0.00026198
0.000262007
0.000261988
0.000261966
0.000261936
0.000261932
0.000261876
0.000255654
0.000125886
0.00180737
0.00180617
0.00180506
0.00180392
0.0018031
0.00180253
0.00180236
0.00180252
0.0018023
0.0013573
0.000593838
0.000144389
0.00389405
0.00389168
0.00389013
0.00388859
0.00388767
0.0038879
0.00388436
0.00388309
0.00388051
0.00234663
0.000753506
0.00015983
0.00442848
0.00442776
0.0044273
0.00442702
0.00442671
0.00442635
0.00442642
0.00442586
0.00442355
0.00272736
0.000859192
0.000174842
0.00450022
0.00449989
0.00449979
0.00449976
0.00449968
0.00449972
0.00449991
0.00449957
0.0044973
0.0029618
0.000961542
0.000189925
0.00450967
0.00450996
0.00451014
0.00451034
0.00451033
0.00451024
0.00451066
0.0045103
0.00450806
0.00315421
0.00106805
0.00020529
0.00451143
0.00451144
0.00451205
0.0045126
0.00451261
0.00451309
0.00451356
0.00451203
0.00451023
0.00332881
0.00118101
0.000221058
0.00451288
0.00451296
0.00451215
0.00451308
0.0045137
0.00451313
0.00451339
0.00451267
0.00451193
0.00350416
0.00129231
0.000237193
0.00451332
0.00451418
0.00451283
0.00451201
0.00451219
0.00451371
0.00451498
0.00451394
0.00451303
0.00363487
0.00142401
0.00025286
0.00451618
0.00451488
0.00451464
0.00451495
0.00451416
0.00451385
0.00451451
0.00451432
0.00451382
0.00380336
0.00154293
0.000269449
0.00451734
0.00451604
0.00451538
0.00451504
0.00451494
0.00451483
0.0045146
0.00451416
0.00451501
0.00388821
0.00170179
0.000285611
0.00451654
0.00451628
0.0045154
0.00451363
0.00451275
0.00451588
0.00451731
0.00451543
0.00451637
0.00399426
0.0019521
0.000305187
0.000127121
0.000254956
0.00026027
0.000261519
0.000261835
0.000261897
0.000261935
0.000261947
0.000261963
0.000261942
0.000261982
0.000261976
0.000145004
0.000593476
0.00130053
0.00168127
0.00178313
0.00180452
0.00180867
0.00180935
0.00180992
0.00180959
0.001809
0.00180826
0.000160225
0.00074502
0.00213689
0.00335093
0.00377562
0.00387468
0.00389441
0.00389632
0.00389713
0.00389905
0.00389562
0.00389315
0.000175199
0.000845097
0.00245512
0.00383436
0.00430176
0.00440481
0.0044245
0.00442808
0.0044292
0.00442938
0.00442929
0.00442903
0.000190443
0.000941585
0.00266109
0.00399221
0.00439407
0.00448067
0.0044969
0.00449965
0.00449986
0.00450005
0.00450032
0.0045003
0.000205696
0.00104101
0.00284024
0.00408421
0.00442696
0.00449447
0.00450647
0.00450845
0.00450929
0.00450986
0.00450953
0.00450923
0.000221503
0.00114361
0.00300308
0.00415769
0.00444445
0.00449938
0.00451066
0.00451149
0.00451125
0.00451174
0.00451214
0.00451277
0.000237021
0.00124697
0.00314785
0.00421536
0.00445891
0.00450328
0.00451168
0.00451278
0.004512
0.00451312
0.00451288
0.00451229
0.000252859
0.00134961
0.00327211
0.00425684
0.00447089
0.00450621
0.00451225
0.00451364
0.00451332
0.00451397
0.00451392
0.00451399
0.000270432
0.00144625
0.00337425
0.00429287
0.00447855
0.00450846
0.00451412
0.00451609
0.00451521
0.00451472
0.004515
0.00451595
0.00028679
0.00152657
0.00345585
0.00432222
0.00448178
0.00451041
0.00451677
0.00451748
0.00451541
0.0045145
0.00451359
0.0045144
0.00031132
0.00169314
0.0036302
0.00435171
0.00449203
0.00451329
0.00451749
0.00451805
0.0045163
0.00451545
0.00451534
0.00451538
0.000261992
0.000261973
0.000261957
0.000261972
0.000261992
0.00026197
0.000261957
0.000261942
0.000261939
0.000261875
0.000255651
0.000125885
0.00180746
0.00180638
0.00180524
0.00180419
0.00180338
0.00180274
0.00180247
0.00180261
0.00180238
0.00135732
0.000593804
0.000144386
0.00389382
0.00389154
0.00388726
0.00388566
0.00388647
0.00388616
0.00388581
0.00388659
0.0038834
0.00234669
0.000753316
0.000159825
0.00442859
0.00442764
0.00442718
0.00442732
0.00442718
0.00442638
0.00442596
0.00442551
0.0044229
0.00273539
0.000857111
0.00017483
0.0045003
0.0045002
0.00449987
0.00449971
0.00449991
0.00449996
0.00449971
0.00450001
0.00449752
0.0029624
0.000960821
0.000189909
0.0045097
0.00451026
0.00451038
0.0045097
0.00450967
0.00451001
0.00451018
0.00451094
0.00450848
0.00316912
0.00106347
0.000205249
0.00451192
0.0045118
0.00451309
0.00451291
0.00451225
0.00451196
0.00451237
0.00451322
0.00451111
0.00333251
0.00118104
0.000220945
0.00451183
0.00451193
0.0045133
0.00451357
0.00451334
0.00451288
0.00451329
0.004514
0.00451207
0.00349964
0.00130132
0.000236719
0.00451268
0.00451181
0.00451375
0.00451446
0.00451396
0.00451403
0.00451446
0.00451447
0.00451264
0.00363821
0.00142593
0.000252969
0.00451428
0.00451333
0.00451351
0.00451433
0.00451504
0.00451464
0.00451493
0.00451486
0.0045139
0.00381811
0.00154219
0.000269004
0.00451504
0.0045146
0.00451522
0.0045168
0.00451529
0.00451409
0.00451515
0.00451505
0.00451551
0.00392784
0.00167721
0.000285441
0.00451577
0.00451633
0.00451628
0.00451593
0.00451602
0.00451607
0.00451599
0.00451414
0.0045149
0.00398894
0.00194558
0.000306263
0.000127147
0.000254973
0.000260278
0.000261527
0.000261847
0.000261926
0.000261974
0.000261984
0.000261983
0.000261979
0.000261994
0.000261988
0.000145047
0.00059346
0.00129974
0.00168123
0.00178442
0.00180488
0.00180877
0.00180934
0.00180925
0.0018089
0.00180873
0.00180847
0.000160205
0.000745006
0.0021369
0.00335234
0.00377434
0.00387566
0.00389469
0.0038966
0.00389814
0.00389718
0.00389395
0.00389239
0.00017521
0.000845094
0.00245571
0.00383593
0.00430193
0.00440395
0.00442449
0.00442823
0.00442987
0.0044295
0.00442895
0.00442863
0.000190341
0.000941529
0.00266739
0.00399021
0.00439478
0.00448004
0.00449667
0.00449987
0.0045004
0.00450017
0.0044997
0.00450027
0.000205759
0.00104105
0.00284104
0.00408579
0.0044259
0.00449523
0.00450775
0.00450952
0.0045098
0.00451032
0.00450988
0.00450959
0.000221218
0.00114346
0.00300281
0.0041562
0.00444684
0.00450114
0.00451089
0.00451188
0.00451128
0.00451127
0.00451164
0.0045121
0.000236713
0.00124732
0.00314784
0.00421823
0.00445926
0.00450514
0.0045124
0.00451339
0.004513
0.00451202
0.00451224
0.00451286
0.000252669
0.00135012
0.00327254
0.00425813
0.0044713
0.00450622
0.00451169
0.0045138
0.00451471
0.00451445
0.00451491
0.00451512
0.000269551
0.00144664
0.00337266
0.00429218
0.00447775
0.00450727
0.00451365
0.00451447
0.0045155
0.00451435
0.00451371
0.00451356
0.000287111
0.00152825
0.00343939
0.00431862
0.00448142
0.00450854
0.00451474
0.00451514
0.00451467
0.00451502
0.00451655
0.00451647
0.000309569
0.00169084
0.00360507
0.00436067
0.00448789
0.00450798
0.00451378
0.00451611
0.00451532
0.00451392
0.00451455
0.0045158
0.000261994
0.000261987
0.000261991
0.000261978
0.00026197
0.000261953
0.000261956
0.000261933
0.00026193
0.000261874
0.000255649
0.000125885
0.00180762
0.00180631
0.00180515
0.00180411
0.00180332
0.00180274
0.00180249
0.00180266
0.00180246
0.00135736
0.000593828
0.000144384
0.00389079
0.00388899
0.00388771
0.0038885
0.00388968
0.00388755
0.00388448
0.00388359
0.00388299
0.00235004
0.000753361
0.000159789
0.004428
0.00442738
0.0044269
0.00442721
0.00442713
0.00442722
0.00442644
0.00442585
0.00442329
0.00273106
0.000857016
0.00017475
0.00450017
0.00449988
0.00449974
0.00449968
0.00450007
0.0045
0.00449978
0.00449958
0.00449737
0.00295658
0.000960833
0.000189915
0.00451014
0.00451013
0.00450992
0.00450955
0.00450981
0.00451018
0.0045102
0.00451043
0.00450824
0.00317437
0.00106357
0.000205233
0.00451256
0.00451319
0.00451308
0.00451235
0.0045121
0.00451267
0.00451263
0.00451257
0.00451083
0.00333365
0.0011801
0.000220586
0.00451302
0.00451351
0.00451365
0.00451256
0.00451247
0.00451316
0.00451307
0.00451334
0.00451233
0.00350505
0.00129155
0.000236277
0.00451512
0.00451457
0.0045141
0.00451396
0.00451347
0.00451446
0.0045162
0.00451531
0.00451353
0.00363525
0.00142594
0.000252141
0.00451387
0.0045146
0.00451473
0.00451512
0.00451625
0.00451564
0.00451494
0.00451497
0.00451431
0.00376414
0.00155646
0.000268694
0.00451422
0.00451448
0.00451518
0.00451518
0.00451647
0.00451552
0.0045147
0.00451626
0.00451524
0.00391563
0.00167848
0.000285367
0.00451594
0.00451595
0.00451569
0.00451554
0.00451664
0.00451576
0.00451563
0.00451724
0.00451669
0.00398666
0.00194541
0.000306173
0.00146241
0.00310846
0.00412208
0.00444376
0.00450096
0.00451266
0.00451549
0.00451632
0.00451606
0.00451623
0.00451598
0.00451615
0.00332691
0.00408112
0.00439392
0.00449259
0.0045101
0.0045148
0.00451779
0.0045146
0.00451314
0.00451706
0.00451914
0.00451528
0.00425294
0.00441049
0.00448537
0.0045127
0.00451923
0.00451653
0.00451574
0.0045148
0.00451505
0.00451812
0.00451973
0.00451708
0.004462
0.00449269
0.00451101
0.00451561
0.00451809
0.00451871
0.00451736
0.00451697
0.00451641
0.00451775
0.00451658
0.00451822
0.0045166
0.00451648
0.00451643
0.00451487
0.00451331
0.00451629
0.00451856
0.00451927
0.00452015
0.00435915
0.00322613
0.00117569
0.00451355
0.00451694
0.00451752
0.00451806
0.00451823
0.00451809
0.0045179
0.00451781
0.00451986
0.00447815
0.004137
0.00293873
0.004516
0.00451724
0.0045154
0.00451655
0.00451741
0.0045173
0.00451659
0.00451744
0.00451929
0.00451255
0.00443307
0.00413475
0.00451998
0.00451897
0.00451856
0.00451883
0.00451798
0.0045196
0.00451873
0.00451802
0.00452082
0.00451826
0.00450102
0.00444559
0.00146353
0.00303276
0.00413565
0.00444689
0.00450103
0.00451224
0.00451677
0.00451698
0.00451643
0.00451773
0.00451766
0.00451793
0.00338503
0.00405051
0.00439735
0.00449286
0.00451153
0.00451518
0.00451911
0.00451841
0.00451714
0.00451684
0.00451711
0.00451744
0.00424583
0.00441067
0.00448637
0.00451155
0.00451714
0.00451658
0.00451632
0.0045155
0.0045135
0.00451558
0.00451678
0.00451914
0.00446339
0.00449378
0.00450969
0.00451518
0.00451699
0.00451797
0.00451847
0.0045181
0.0045169
0.00451644
0.0045153
0.00451838
0.00451866
0.00451876
0.00451817
0.00451702
0.00451598
0.00451595
0.00451433
0.00451423
0.00451704
0.00435621
0.00324823
0.00117849
0.00451775
0.00451704
0.00451659
0.00451775
0.00451608
0.00451491
0.00451583
0.00451867
0.00451848
0.00447698
0.0041386
0.00301151
0.00451999
0.00451653
0.00451644
0.0045156
0.00451632
0.00451695
0.00451639
0.00451707
0.00451517
0.00450803
0.00442856
0.00416554
0.00452071
0.0045206
0.00452016
0.00451876
0.00452033
0.00451906
0.00451787
0.00451532
0.00451563
0.00451441
0.00449955
0.00445134
0.00146277
0.00307046
0.00411437
0.00444322
0.0045031
0.00451516
0.00451756
0.00451668
0.00451453
0.00451518
0.00451644
0.00451757
0.00337097
0.00406996
0.0043941
0.00448982
0.00451228
0.00451858
0.0045193
0.00451799
0.00451721
0.00451783
0.00451795
0.00451679
0.00426232
0.00441133
0.00448514
0.00450676
0.00451432
0.00451621
0.00451767
0.0045175
0.00451538
0.00451782
0.00451846
0.00451498
0.00446625
0.00449262
0.00450764
0.00451315
0.00451651
0.00451687
0.00451779
0.0045189
0.00451734
0.00451787
0.00451793
0.00451663
0.00451625
0.00451565
0.00451837
0.00451798
0.00451739
0.00451874
0.00451818
0.00451598
0.00451602
0.00435948
0.00324507
0.00117851
0.00451639
0.00451635
0.0045149
0.00451356
0.00451568
0.00451691
0.00451497
0.00451546
0.00451608
0.00448272
0.00409998
0.00304196
0.00451363
0.00451584
0.0045167
0.00451602
0.00451669
0.00451692
0.00451672
0.00451541
0.00451307
0.00450798
0.00442689
0.00415366
0.00451717
0.00451835
0.00451857
0.00451854
0.00451603
0.00451542
0.00451667
0.00451751
0.0045182
0.00451685
0.00449832
0.00445032
0.0014661
0.00303404
0.00413897
0.00444041
0.00450253
0.00451176
0.0045157
0.00451673
0.0045162
0.00451596
0.00451777
0.00451972
0.00337736
0.00406408
0.00439311
0.00449215
0.00451453
0.00451639
0.00451817
0.00451733
0.00451441
0.0045158
0.00451856
0.00451863
0.00425712
0.00441383
0.00448268
0.00451141
0.00451781
0.00451677
0.00451832
0.00451589
0.00451516
0.0045185
0.00452118
0.00451901
0.00446588
0.00449477
0.00450848
0.00451384
0.00451593
0.00451704
0.00451846
0.0045184
0.00451744
0.00451724
0.0045175
0.00451715
0.00451769
0.00451475
0.00451519
0.00451472
0.00451483
0.00451579
0.00451653
0.00451851
0.00451718
0.00435226
0.00325827
0.00117808
0.00451821
0.00451806
0.00451748
0.00451722
0.00451683
0.00451646
0.00451504
0.00451779
0.00451829
0.00447578
0.00415597
0.00299817
0.00451762
0.00451981
0.00451747
0.00451637
0.00451539
0.00451483
0.00451685
0.00451812
0.00451889
0.00450951
0.00443518
0.004138
0.00451553
0.00451683
0.0045187
0.00451865
0.00451838
0.00451712
0.00451802
0.00451735
0.00451865
0.00451982
0.00450301
0.00444625
0.00450758
0.00451415
0.00451713
0.0045182
0.00451884
0.00451897
0.00451861
0.00451875
0.00451843
0.00451876
0.00451871
0.00451926
0.00451686
0.00451853
0.00451965
0.00451939
0.0045193
0.00451954
0.00451947
0.00451933
0.0045191
0.00451918
0.0045195
0.00451751
0.00451909
0.0045196
0.00451988
0.00451974
0.00451972
0.00451997
0.00451993
0.00451983
0.00451995
0.00452002
0.00451769
0.00353404
0.00451981
0.00452027
0.00451983
0.00452046
0.00452029
0.0045204
0.00452057
0.00452029
0.00452048
0.00451988
0.0038571
0.00166582
0.00451975
0.00451933
0.00451924
0.00451924
0.00451872
0.00451925
0.00451899
0.00451889
0.00451911
0.0045189
0.00451512
0.00450533
0.00451679
0.00451897
0.00451944
0.00451965
0.0045194
0.00451982
0.00451959
0.00451979
0.00451962
0.00451925
0.00451889
0.00451679
0.00342392
0.00435971
0.00450545
0.00451881
0.00451992
0.00452044
0.00451997
0.00452019
0.00452032
0.00451988
0.00452003
0.0045191
0.00164136
0.00379799
0.00444702
0.00451435
0.00451978
0.00452055
0.00452008
0.00452032
0.0045204
0.00452031
0.00452037
0.00452007
0.0045078
0.00451379
0.00451659
0.00451808
0.00451819
0.00451872
0.00451899
0.00451848
0.00451863
0.00451863
0.00451844
0.00451909
0.00451697
0.0045182
0.00451866
0.00451923
0.00451891
0.00451939
0.0045192
0.00451928
0.00451931
0.00451924
0.0045195
0.00451739
0.00451919
0.00451961
0.00451984
0.00451989
0.00451953
0.0045199
0.00451976
0.00451989
0.00451986
0.00451994
0.00451781
0.00353171
0.00451965
0.00452026
0.00452038
0.00452029
0.00452014
0.00452042
0.00452043
0.0045203
0.00452017
0.00451984
0.00385729
0.00166579
0.00451955
0.00451962
0.0045194
0.00451911
0.0045194
0.00451917
0.00451893
0.00451809
0.00451842
0.00451787
0.00451503
0.0045065
0.00451683
0.00451923
0.00451977
0.00451942
0.00451949
0.00451937
0.00451965
0.00451968
0.00451932
0.00451968
0.00451892
0.0045175
0.00342299
0.00436035
0.00450525
0.00451873
0.00451989
0.00451975
0.00451995
0.00452051
0.00451999
0.00452028
0.00451985
0.00451947
0.00164341
0.00379303
0.00444682
0.00451464
0.00451985
0.00452022
0.00452011
0.00452052
0.00452029
0.00452063
0.00452029
0.00452023
0.00450878
0.00451397
0.00451633
0.00451783
0.00451886
0.00451837
0.00451898
0.00451925
0.00451855
0.00451895
0.00451908
0.00451855
0.0045165
0.00451846
0.00451851
0.00451903
0.0045197
0.0045193
0.00451958
0.0045196
0.00451932
0.00451955
0.0045196
0.00451705
0.00451885
0.00451961
0.00451952
0.00451919
0.00452007
0.00451991
0.00451997
0.00452006
0.00452001
0.00452015
0.00451788
0.00353825
0.00451958
0.00452018
0.00452011
0.00451998
0.00452045
0.00452028
0.00452034
0.00452037
0.00452046
0.0045199
0.00385618
0.00166381
0.00451871
0.00451903
0.00451913
0.00451926
0.00451886
0.00451849
0.00451834
0.00451904
0.00451936
0.00451884
0.0045139
0.00450579
0.00451662
0.00451909
0.00451953
0.00451963
0.00451956
0.0045194
0.00451923
0.00451948
0.00451959
0.0045194
0.00451836
0.0045172
0.00342389
0.00436137
0.00450558
0.00451882
0.00451994
0.00451995
0.00451996
0.00451967
0.00451992
0.00451965
0.00451961
0.00451944
0.00164148
0.0037979
0.00444728
0.00451444
0.00451982
0.0045204
0.0045202
0.00452043
0.00452037
0.00452037
0.00452017
0.0045202
0.00450831
0.00451367
0.00451655
0.00451826
0.00451922
0.00451856
0.0045188
0.00451887
0.00451877
0.0045189
0.00451893
0.00451887
0.00451663
0.00451852
0.00451905
0.00451926
0.00451986
0.00451943
0.00451957
0.00451961
0.00451944
0.00451948
0.00451949
0.00451704
0.00451907
0.00451981
0.00451973
0.00451925
0.00451988
0.00451993
0.0045201
0.00451981
0.0045199
0.00451989
0.00451769
0.00353464
0.00451956
0.00452038
0.0045201
0.00451994
0.00452029
0.00452042
0.00452052
0.00452014
0.00452039
0.00451965
0.00385736
0.00166365
0.00451863
0.00451878
0.00451896
0.00451875
0.00451896
0.00451883
0.00451918
0.00451888
0.00451914
0.00451974
0.00451571
0.00450523
0.00451643
0.00451893
0.00451946
0.00451941
0.0045196
0.00451948
0.00451955
0.00451949
0.00451941
0.00451995
0.00451869
0.00451695
0.00342459
0.00435845
0.00450526
0.00451876
0.00451996
0.00451995
0.00451996
0.00451989
0.00451964
0.00452004
0.00451979
0.00451956
0.00164285
0.00379292
0.00444689
0.00451456
0.00451993
0.00452035
0.00452029
0.00452056
0.00451985
0.00452033
0.00452025
0.00452029
0.00452014
0.00452074
0.0045205
0.00452089
0.00452071
0.00452055
0.00452093
0.00452077
0.00452076
0.00441289
0.00286851
0.000458087
0.0045204
0.0045209
0.00452117
0.00452117
0.00452099
0.0045208
0.00452124
0.0045211
0.00452099
0.00438964
0.00280905
0.000467327
0.00452082
0.0045212
0.00452137
0.00452138
0.00452127
0.00452112
0.00452149
0.00452137
0.00452126
0.00439658
0.00287213
0.000482844
0.00452107
0.00452164
0.00452179
0.00452167
0.00452147
0.0045215
0.00452165
0.00452164
0.00452156
0.00441016
0.00295527
0.000499794
0.00452145
0.00452203
0.00452207
0.00452189
0.00452172
0.00452191
0.00452191
0.00452194
0.00452185
0.00442366
0.00303896
0.000517074
0.00452171
0.0045222
0.00452212
0.00452212
0.00452207
0.0045222
0.00452217
0.00452217
0.00452211
0.00443571
0.00311921
0.000534434
0.00452195
0.00452243
0.00452235
0.00452235
0.0045223
0.00452245
0.0045224
0.00452239
0.00452234
0.00444623
0.00319537
0.000551851
0.00452228
0.00452265
0.00452256
0.00452259
0.00452254
0.00452266
0.00452265
0.0045226
0.00452257
0.00445535
0.00326749
0.000569349
0.00451484
0.00451417
0.00451405
0.00451408
0.00451404
0.00451411
0.00451409
0.00451408
0.00451406
0.00445466
0.00332933
0.000586791
0.00262295
0.0025476
0.00254312
0.00254256
0.00254337
0.0025426
0.00254301
0.00254293
0.00254369
0.00252657
0.00213383
0.000603809
0.000875047
0.000866928
0.000866189
0.000865915
0.000865782
0.000865668
0.000865594
0.000865649
0.000865786
0.000863883
0.000837662
0.000586981
0.000198165
0.000197508
0.000197483
0.000197414
0.0001974
0.000197388
0.000197349
0.000197327
0.000197332
0.000197307
0.000196633
0.000189633
0.000458162
0.00287723
0.00434724
0.00450825
0.00451978
0.0045206
0.00452057
0.00452087
0.00452075
0.0045205
0.00452095
0.00452045
0.000467836
0.00281847
0.00432982
0.0045069
0.00452006
0.00452102
0.00452126
0.00452121
0.00452107
0.00452089
0.00452129
0.00452094
0.000483378
0.00287712
0.00434168
0.0045081
0.00452035
0.00452144
0.00452148
0.00452126
0.00452128
0.00452134
0.00452152
0.00452144
0.000500247
0.0029559
0.00436038
0.00451012
0.00452082
0.0045216
0.0045216
0.00452159
0.00452162
0.0045217
0.00452171
0.00452158
0.000517477
0.0030371
0.00437815
0.00451204
0.00452129
0.00452174
0.00452186
0.00452202
0.00452193
0.00452187
0.00452187
0.00452185
0.000534787
0.00311528
0.0043947
0.00451384
0.00452172
0.00452197
0.00452216
0.00452239
0.00452224
0.00452214
0.00452212
0.00452207
0.0005522
0.00319024
0.00440918
0.00451535
0.00452207
0.00452227
0.00452242
0.00452249
0.00452249
0.00452235
0.00452236
0.00452234
0.000569679
0.00326165
0.00442191
0.00451661
0.00452234
0.00452258
0.00452263
0.00452256
0.00452264
0.00452262
0.00452263
0.00452256
0.0005872
0.00332395
0.00442468
0.00450901
0.00451388
0.00451415
0.00451412
0.00451407
0.00451409
0.00451406
0.00451408
0.00451406
0.000604586
0.0021848
0.00252159
0.00254392
0.00254554
0.00254643
0.00254676
0.0025469
0.00254624
0.00254769
0.00254783
0.00254613
0.000590577
0.000840521
0.000864453
0.000866214
0.000866353
0.000866584
0.000866682
0.000866837
0.000866969
0.000867095
0.000867128
0.000867782
0.000190386
0.000196694
0.000197279
0.000197328
0.000197353
0.000197377
0.000197382
0.000197392
0.000197458
0.00019745
0.000197477
0.000197607
0.00452023
0.00452061
0.0045206
0.00452068
0.00452063
0.00452078
0.00452074
0.00452071
0.00452057
0.00441291
0.00286798
0.000458224
0.00452047
0.00452085
0.00452092
0.004521
0.00452084
0.004521
0.00452108
0.00452099
0.00452087
0.00438977
0.00280935
0.000467605
0.00452071
0.00452121
0.00452127
0.00452131
0.00452109
0.00452116
0.00452142
0.00452134
0.00452121
0.00439665
0.00287254
0.000482974
0.00452114
0.00452159
0.00452148
0.00452154
0.00452146
0.00452154
0.0045217
0.00452165
0.00452158
0.00441021
0.00295569
0.000499823
0.00452143
0.00452179
0.00452176
0.00452196
0.00452196
0.00452205
0.00452198
0.0045219
0.00452184
0.00442372
0.00303929
0.000517042
0.00452166
0.00452208
0.00452203
0.00452215
0.00452233
0.00452236
0.00452222
0.00452217
0.00452213
0.00443578
0.00311954
0.000534453
0.00452195
0.00452247
0.0045224
0.00452234
0.0045224
0.00452245
0.00452238
0.0045224
0.00452237
0.00444627
0.00319567
0.000551881
0.00452219
0.00452272
0.00452262
0.0045226
0.00452255
0.00452254
0.00452255
0.00452261
0.00452257
0.00445539
0.00326776
0.000569358
0.00451482
0.00451421
0.00451408
0.00451408
0.00451412
0.004514
0.00451403
0.00451407
0.00451407
0.00445471
0.00332957
0.000586797
0.00262542
0.00254843
0.00254335
0.00254393
0.00254278
0.00254245
0.00254313
0.00254338
0.00254382
0.00252667
0.00213398
0.000603816
0.000875326
0.000867012
0.000866208
0.000865991
0.000865847
0.000865776
0.000865685
0.000865708
0.000865843
0.000863914
0.000837703
0.000586991
0.00019825
0.000197508
0.000197445
0.00019742
0.000197415
0.000197423
0.000197377
0.000197335
0.000197338
0.000197313
0.000196634
0.000189625
0.000458268
0.00287544
0.00434855
0.00450838
0.00451982
0.0045205
0.00452072
0.00452066
0.00452047
0.00452086
0.0045208
0.00452073
0.00046783
0.0028184
0.00433001
0.00450694
0.00452013
0.00452084
0.00452119
0.00452099
0.00452105
0.00452126
0.00452096
0.00452099
0.000483328
0.0028773
0.00434174
0.00450815
0.00452036
0.00452136
0.00452126
0.00452133
0.00452154
0.00452167
0.00452139
0.00452131
0.000500243
0.0029561
0.00436043
0.00451013
0.0045207
0.00452171
0.00452155
0.0045216
0.0045217
0.00452186
0.00452177
0.00452172
0.000517484
0.00303733
0.00437821
0.00451206
0.0045212
0.00452194
0.00452201
0.00452188
0.00452196
0.00452212
0.00452194
0.00452197
0.000534791
0.00311548
0.00439473
0.00451379
0.00452157
0.00452215
0.00452226
0.00452204
0.00452224
0.00452215
0.00452209
0.00452214
0.000552204
0.00319059
0.00440906
0.0045153
0.00452193
0.00452242
0.00452242
0.00452224
0.00452244
0.00452228
0.00452232
0.00452235
0.000569677
0.00326193
0.00442181
0.00451657
0.00452226
0.00452262
0.00452261
0.00452248
0.00452258
0.00452258
0.00452255
0.00452248
0.000587208
0.00332406
0.0044247
0.00450899
0.00451384
0.00451409
0.0045141
0.00451402
0.00451411
0.00451411
0.00451412
0.00451405
0.000604596
0.00218473
0.00252156
0.00254359
0.00254535
0.0025462
0.00254598
0.00254676
0.00254701
0.00254789
0.00254757
0.00254591
0.000590586
0.000840503
0.000864446
0.000866191
0.000866317
0.000866764
0.000866629
0.00086676
0.000866988
0.000867047
0.000867023
0.000867707
0.000190388
0.000196697
0.000197281
0.000197328
0.000197349
0.000197386
0.000197391
0.000197371
0.000197451
0.000197438
0.0001974
0.000197537
0.0045201
0.00452062
0.00452061
0.00452056
0.00452061
0.00452046
0.00452066
0.00452073
0.00452071
0.0044128
0.00286842
0.000458068
0.00452043
0.00452102
0.00452096
0.00452078
0.00452113
0.0045209
0.0045211
0.00452112
0.00452104
0.0043896
0.00280912
0.000467321
0.0045208
0.00452138
0.00452118
0.00452099
0.00452141
0.00452136
0.00452141
0.00452142
0.00452128
0.00439661
0.00287217
0.000482853
0.00452105
0.00452163
0.00452153
0.0045216
0.00452154
0.00452161
0.00452166
0.00452175
0.0045216
0.00441018
0.00295534
0.000499833
0.00452131
0.00452183
0.00452171
0.00452202
0.00452184
0.00452187
0.00452192
0.00452203
0.0045219
0.00442367
0.00303899
0.00051708
0.00452159
0.0045221
0.00452204
0.00452215
0.00452206
0.00452205
0.00452219
0.0045222
0.00452212
0.00443573
0.00311925
0.000534412
0.00452186
0.00452239
0.00452233
0.00452241
0.00452232
0.00452225
0.0045224
0.0045224
0.00452232
0.00444623
0.00319542
0.000551853
0.00452224
0.00452269
0.0045226
0.00452263
0.00452257
0.00452256
0.00452262
0.00452261
0.00452256
0.00445535
0.00326754
0.000569345
0.00451483
0.00451415
0.00451415
0.00451412
0.00451408
0.00451405
0.00451409
0.00451408
0.00451407
0.00445468
0.00332938
0.000586769
0.0026251
0.00254854
0.00254405
0.00254354
0.00254338
0.00254314
0.00254305
0.00254291
0.00254368
0.00252655
0.00213384
0.000603805
0.000875257
0.000866941
0.000866169
0.000865875
0.000865729
0.000865616
0.000865602
0.000865641
0.000865794
0.000863888
0.000837659
0.000586981
0.000198234
0.000197505
0.000197375
0.000197359
0.000197393
0.000197366
0.000197355
0.000197335
0.000197333
0.000197312
0.000196636
0.000189624
0.000458424
0.00287563
0.00434895
0.00450815
0.00451982
0.00452075
0.00452057
0.00452111
0.00452057
0.00452076
0.00452054
0.00452063
0.000467856
0.00281721
0.00433116
0.00450671
0.00452004