/*--------------------------------*- C++ -*----------------------------------*\
  =========                 |
  \\      /  F ield         | OpenFOAM: The Open Source CFD Toolbox
   \\    /   O peration     | Website:  https://openfoam.org
    \\  /    A nd           | Version:  6
     \\/     M anipulation  |
\*---------------------------------------------------------------------------*/
FoamFile
{
    version     2.0;
    format      ascii;
    class       surfaceScalarField;
    location    "500";
    object      phi;
}
// * * * * * * * * * * * * * * * * * * * * * * * * * * * * * * * * * * * * * //

dimensions      [0 3 -1 0 0 0 0];

internalField   nonuniform List<scalar> 
5952
(
-2.78817e-07
2.82581e-07
-2.09294e-07
-5.8469e-08
-9.42207e-08
-1.11621e-07
6.63291e-08
-1.44631e-07
2.29802e-07
-1.60139e-07
4.10004e-07
-1.59801e-07
5.62321e-07
-1.49765e-07
7.13076e-07
-1.29988e-07
8.19941e-07
-1.05921e-07
9.12919e-07
-7.6693e-08
9.54291e-07
-4.65168e-08
-1.32803e-08
9.78016e-07
3.63628e-07
-7.43457e-08
5.35992e-07
-2.2185e-07
7.20734e-07
-2.90683e-07
9.25123e-07
-3.36359e-07
1.12416e-06
-3.52631e-07
1.32093e-06
-3.42745e-07
1.49143e-06
-3.13816e-07
1.64517e-06
-2.70179e-07
1.76007e-06
-2.17546e-07
1.85013e-06
-1.57667e-07
1.89758e-06
-9.42978e-08
-2.7962e-08
1.9175e-06
4.08083e-07
-4.73105e-07
7.10644e-07
-5.13752e-07
1.00781e-06
-5.80073e-07
1.3018e-06
-6.17934e-07
1.57372e-06
-6.16242e-07
1.82439e-06
-5.80234e-07
2.03698e-06
-5.19187e-07
2.21845e-06
-4.40099e-07
2.35529e-06
-3.49628e-07
2.45736e-06
-2.51571e-07
2.51381e-06
-1.49359e-07
-4.45164e-08
2.53501e-06
5.4383e-07
-1.00196e-06
9.69959e-07
-9.26155e-07
1.38419e-06
-9.83093e-07
1.77602e-06
-9.95012e-07
2.12562e-06
-9.54916e-07
2.43319e-06
-8.73201e-07
2.68742e-06
-7.63811e-07
2.89651e-06
-6.36126e-07
3.05223e-06
-4.98769e-07
3.16541e-06
-3.55103e-07
3.22867e-06
-2.09274e-07
-6.17258e-08
3.25149e-06
7.36354e-07
-1.71175e-06
1.31604e-06
-1.48323e-06
1.86394e-06
-1.51123e-06
2.3599e-06
-1.46895e-06
2.78696e-06
-1.36375e-06
3.14647e-06
-1.212e-06
3.43584e-06
-1.03747e-06
3.66496e-06
-8.47645e-07
3.83413e-06
-6.56079e-07
3.95313e-06
-4.60838e-07
4.02047e-06
-2.69923e-07
-7.63859e-08
4.044e-06
9.91837e-07
-2.66004e-06
1.7631e-06
-2.21919e-06
2.46574e-06
-2.17213e-06
3.06566e-06
-2.03515e-06
3.5648e-06
-1.82355e-06
3.96086e-06
-1.57951e-06
4.27518e-06
-1.31731e-06
4.5096e-06
-1.06064e-06
4.68599e-06
-8.0448e-07
4.80047e-06
-5.62471e-07
4.87229e-06
-3.20652e-07
-9.02682e-08
4.89046e-06
1.3333e-06
-3.91477e-06
2.34728e-06
-3.17376e-06
3.21054e-06
-2.98462e-06
3.91292e-06
-2.68214e-06
4.4558e-06
-2.32316e-06
4.87638e-06
-1.95089e-06
5.18615e-06
-1.59358e-06
5.42146e-06
-1.25513e-06
5.58206e-06
-9.42791e-07
5.69704e-06
-6.46126e-07
5.75565e-06
-3.68124e-07
-9.44637e-08
5.78084e-06
1.79622e-06
-5.67084e-06
3.10815e-06
-4.4356e-06
4.13742e-06
-3.96884e-06
4.90812e-06
-3.40598e-06
5.46708e-06
-2.84122e-06
5.87296e-06
-2.31743e-06
6.1636e-06
-1.84985e-06
6.37211e-06
-1.43351e-06
6.51665e-06
-1.061e-06
6.6124e-06
-7.21227e-07
6.66659e-06
-4.0482e-07
-1.01366e-07
6.68482e-06
2.47317e-06
-8.07145e-06
4.12789e-06
-6.0489e-06
5.28746e-06
-5.09123e-06
6.06574e-06
-4.15038e-06
6.58719e-06
-3.33045e-06
6.94097e-06
-2.64122e-06
7.18418e-06
-2.06597e-06
7.35218e-06
-1.57698e-06
7.46652e-06
-1.15414e-06
7.54071e-06
-7.77342e-07
7.58295e-06
-4.32399e-07
-1.04777e-07
7.59764e-06
3.50062e-06
-1.15522e-05
5.51729e-06
-8.04528e-06
6.69949e-06
-6.25108e-06
7.38281e-06
-4.8176e-06
7.79695e-06
-3.72465e-06
8.05695e-06
-2.88584e-06
8.22921e-06
-2.22052e-06
8.3429e-06
-1.67692e-06
8.41945e-06
-1.21614e-06
8.46754e-06
-8.13914e-07
8.49556e-06
-4.49404e-07
-1.0728e-07
8.50568e-06
5.25463e-06
-1.67924e-05
7.44543e-06
-1.02299e-05
8.39162e-06
-7.19107e-06
8.82987e-06
-5.2479e-06
9.05884e-06
-3.94456e-06
9.19219e-06
-3.00929e-06
9.27561e-06
-2.29359e-06
9.32887e-06
-1.71997e-06
9.36273e-06
-1.23968e-06
9.38333e-06
-8.2436e-07
9.39505e-06
-4.51942e-07
-1.05043e-07
9.4007e-06
8.67141e-06
-2.54694e-05
1.00833e-05
-1.16516e-05
1.03099e-05
-7.42872e-06
1.03312e-05
-5.27354e-06
1.03209e-05
-3.93921e-06
1.03116e-05
-2.99992e-06
1.03027e-05
-2.28553e-06
1.02953e-05
-1.71018e-06
1.0287e-05
-1.22891e-06
1.02798e-05
-8.12553e-07
1.0275e-05
-4.42352e-07
1.02754e-05
-1.00986e-07
9.51964e-07
1.91027e-08
9.05211e-07
5.23061e-08
8.13656e-07
8.29908e-08
7.02981e-07
1.12228e-07
5.58779e-07
1.36588e-07
4.01992e-07
1.55709e-07
2.30325e-07
1.65883e-07
6.22193e-08
1.64946e-07
-9.15962e-08
1.49832e-07
-2.10237e-07
1.1575e-07
-2.76232e-07
6.29439e-08
-2.77306e-07
1.8953e-06
3.85676e-08
1.84431e-06
1.0503e-07
1.75418e-06
1.6881e-07
1.6365e-06
2.28985e-07
1.48628e-06
2.82117e-07
1.31387e-06
3.2546e-07
1.12142e-06
3.54069e-07
9.19914e-07
3.6268e-07
7.2025e-07
3.45808e-07
5.33827e-07
2.99179e-07
3.63605e-07
2.29797e-07
8.54977e-08
2.51174e-06
6.08375e-08
2.45227e-06
1.65816e-07
2.34988e-06
2.68516e-07
2.21061e-06
3.6703e-07
2.03096e-06
4.57935e-07
1.81643e-06
5.36915e-07
1.56852e-06
5.97563e-07
1.29487e-06
6.32241e-07
1.0043e-06
6.32642e-07
7.06324e-07
5.93507e-07
4.07072e-07
5.27134e-07
4.92801e-07
3.2268e-06
8.59753e-08
3.16113e-06
2.33744e-07
3.04754e-06
3.8039e-07
2.88931e-06
5.24421e-07
2.68104e-06
6.62572e-07
2.42436e-06
7.89994e-07
2.11838e-06
8.99122e-07
1.7669e-06
9.79233e-07
1.37798e-06
1.01863e-06
9.64427e-07
1.006e-06
5.42582e-07
9.49227e-07
1.03342e-06
4.01892e-06
1.13082e-07
3.9501e-06
3.07079e-07
3.82996e-06
4.9898e-07
3.65892e-06
6.94937e-07
3.42892e-06
8.87777e-07
3.13716e-06
1.07723e-06
2.77755e-06
1.25245e-06
2.35011e-06
1.40318e-06
1.8565e-06
1.50853e-06
1.30973e-06
1.54765e-06
7.32444e-07
1.52028e-06
1.76342e-06
4.87136e-06
1.45894e-07
4.79877e-06
3.77328e-07
4.68276e-06
6.19916e-07
4.50525e-06
8.64496e-07
4.26768e-06
1.12118e-06
3.95249e-06
1.38057e-06
3.55436e-06
1.64265e-06
3.05661e-06
1.88818e-06
2.45395e-06
2.09592e-06
1.75674e-06
2.23681e-06
9.87309e-07
2.28099e-06
2.73991e-06
5.75598e-06
1.72463e-07
5.69625e-06
4.47221e-07
5.58188e-06
7.27666e-07
5.41772e-06
1.02687e-06
5.18187e-06
1.34245e-06
4.86789e-06
1.68389e-06
4.44748e-06
2.04388e-06
3.89985e-06
2.41847e-06
3.20352e-06
2.78301e-06
2.33667e-06
3.08304e-06
1.32376e-06
3.27676e-06
4.06244e-06
6.66805e-06
1.98256e-07
6.61415e-06
5.03019e-07
6.51911e-06
8.23037e-07
6.37174e-06
1.16575e-06
6.16242e-06
1.54367e-06
5.8673e-06
1.96366e-06
5.4615e-06
2.43812e-06
4.90141e-06
2.96661e-06
4.12804e-06
3.53435e-06
3.10158e-06
4.1076e-06
1.79562e-06
4.57834e-06
5.84741e-06
7.5856e-06
2.17288e-07
7.54574e-06
5.46821e-07
7.47164e-06
8.95288e-07
7.35674e-06
1.2764e-06
7.18633e-06
1.70509e-06
6.94164e-06
2.19981e-06
6.58618e-06
2.78285e-06
6.06234e-06
3.47937e-06
5.28778e-06
4.31296e-06
4.12434e-06
5.25753e-06
2.46426e-06
6.22895e-06
8.31646e-06
8.49974e-06
2.28741e-07
8.47537e-06
5.73163e-07
8.42802e-06
9.40832e-07
8.35214e-06
1.34869e-06
8.23597e-06
1.81473e-06
8.06392e-06
2.36675e-06
7.80205e-06
3.04032e-06
7.39094e-06
3.8905e-06
6.70293e-06
4.99134e-06
5.52335e-06
6.44678e-06
3.50336e-06
8.25407e-06
1.18195e-05
9.40083e-06
2.3385e-07
9.39336e-06
5.82705e-07
9.37527e-06
9.58621e-07
9.3418e-06
1.37921e-06
9.28836e-06
1.86545e-06
9.20504e-06
2.4477e-06
9.07221e-06
3.17187e-06
8.84386e-06
4.11881e-06
8.40947e-06
5.43696e-06
7.45938e-06
7.39553e-06
5.26395e-06
1.04563e-05
1.70997e-05
1.02819e-05
2.30531e-07
1.02919e-05
5.73747e-07
1.03028e-05
9.47864e-07
1.03119e-05
1.36864e-06
1.03208e-05
1.85689e-06
1.03297e-05
2.43945e-06
1.03417e-05
3.16394e-06
1.0354e-05
4.11282e-06
1.0335e-05
5.45956e-06
1.0111e-05
7.63465e-06
8.69955e-06
1.1887e-05
2.57971e-05
2.80966e-07
7.04744e-07
2.27474e-07
1.08647e-07
2.17417e-07
-1.48927e-08
3.2636e-07
-8.26229e-08
4.26436e-07
-1.20404e-07
5.78814e-07
-1.31514e-07
6.93831e-07
-1.29987e-07
8.26871e-07
-1.14729e-07
9.08876e-07
-9.46713e-08
9.90841e-07
-6.71897e-08
1.01755e-06
-3.8757e-08
-6.36331e-09
1.03442e-06
5.34726e-07
2.04463e-07
7.49942e-07
-6.93479e-08
9.16708e-07
-1.78694e-07
1.10736e-06
-2.53909e-07
1.27704e-06
-2.92635e-07
1.45587e-06
-2.97815e-07
1.60244e-06
-2.79979e-07
1.74095e-06
-2.43822e-07
1.8388e-06
-1.96477e-07
1.91852e-06
-1.40361e-07
1.9547e-06
-7.97077e-08
-1.55307e-08
1.96748e-06
4.93012e-07
-2.64981e-07
8.37e-07
-3.8609e-07
1.14156e-06
-4.76015e-07
1.43811e-06
-5.34413e-07
1.69703e-06
-5.51164e-07
1.93848e-06
-5.28536e-07
2.13475e-06
-4.78613e-07
2.30558e-06
-4.07101e-07
2.42831e-06
-3.23032e-07
2.52209e-06
-2.29078e-07
2.56814e-06
-1.30621e-07
-2.83147e-08
2.58331e-06
5.9847e-07
-8.40459e-07
1.05387e-06
-8.22164e-07
1.4817e-06
-8.94844e-07
1.88026e-06
-9.20535e-07
2.22639e-06
-8.97417e-07
2.52887e-06
-8.23545e-07
2.77326e-06
-7.27424e-07
2.97368e-06
-6.02689e-07
3.11936e-06
-4.75163e-07
3.22471e-06
-3.31368e-07
3.27963e-06
-1.93261e-07
-4.38485e-08
3.29685e-06
7.74596e-07
-1.58559e-06
1.37587e-06
-1.3995e-06
1.94087e-06
-1.43727e-06
2.43844e-06
-1.41398e-06
2.87692e-06
-1.31065e-06
3.22236e-06
-1.18139e-06
3.51856e-06
-1.0019e-06
3.7276e-06
-8.32047e-07
3.90282e-06
-6.31033e-07
4.00098e-06
-4.53195e-07
4.0755e-06
-2.50645e-07
-7.3056e-08
4.07968e-06
1.01926e-06
-2.54764e-06
1.8101e-06
-2.1473e-06
2.51726e-06
-2.11238e-06
3.14258e-06
-1.98382e-06
3.62464e-06
-1.79652e-06
4.0446e-06
-1.54831e-06
4.33118e-06
-1.30815e-06
4.58614e-06
-1.04194e-06
4.73136e-06
-8.04746e-07
4.86508e-06
-5.49835e-07
4.90585e-06
-3.24927e-07
-8.12731e-08
4.94264e-06
1.34579e-06
-3.86392e-06
2.38008e-06
-3.12661e-06
3.25233e-06
-2.95372e-06
3.96129e-06
-2.65498e-06
4.52099e-06
-2.30092e-06
4.93433e-06
-1.94134e-06
5.25391e-06
-1.58662e-06
5.47583e-06
-1.2575e-06
5.64313e-06
-9.43613e-07
5.74185e-06
-6.53352e-07
5.80528e-06
-3.71663e-07
-1.03722e-07
5.81556e-06
1.81939e-06
-5.63185e-06
3.12412e-06
-4.42297e-06
4.17538e-06
-3.94477e-06
4.95144e-06
-3.39547e-06
5.51918e-06
-2.83636e-06
5.92829e-06
-2.3198e-06
6.22175e-06
-1.8568e-06
6.42816e-06
-1.44513e-06
6.57115e-06
-1.07405e-06
6.66111e-06
-7.35732e-07
6.71034e-06
-4.1944e-07
-1.16839e-07
6.72292e-06
2.47801e-06
-8.10985e-06
4.15424e-06
-6.06102e-06
5.31296e-06
-5.11194e-06
6.10379e-06
-4.15991e-06
6.63256e-06
-3.34098e-06
6.99197e-06
-2.65567e-06
7.23791e-06
-2.08358e-06
7.40677e-06
-1.59793e-06
7.51953e-06
-1.1758e-06
7.58918e-06
-8.00182e-07
7.62581e-06
-4.54761e-07
-1.28278e-07
7.63399e-06
3.52172e-06
-1.16118e-05
5.53655e-06
-8.09313e-06
6.73384e-06
-6.27279e-06
7.41982e-06
-4.84131e-06
7.83889e-06
-3.74673e-06
8.10508e-06
-2.9076e-06
8.27992e-06
-2.24556e-06
8.39659e-06
-1.70304e-06
8.47119e-06
-1.24452e-06
8.51608e-06
-8.42041e-07
8.53723e-06
-4.78424e-07
-1.36777e-07
8.54061e-06
5.27496e-06
-1.68994e-05
7.48329e-06
-1.02852e-05
8.42423e-06
-7.24318e-06
8.86771e-06
-5.2794e-06
9.10063e-06
-3.97026e-06
9.23754e-06
-3.03438e-06
9.32509e-06
-2.32007e-06
9.38046e-06
-1.74836e-06
9.41419e-06
-1.27001e-06
9.4308e-06
-8.55848e-07
9.43601e-06
-4.84419e-07
-1.39239e-07
9.43351e-06
8.71372e-06
-2.5611e-05
1.01228e-05
-1.17172e-05
1.03554e-05
-7.45984e-06
1.03723e-05
-5.30262e-06
1.03626e-05
-3.96333e-06
1.03555e-05
-3.02325e-06
1.03504e-05
-2.30964e-06
1.03451e-05
-1.73745e-06
1.03371e-05
-1.25846e-06
1.03261e-05
-8.44824e-07
1.03143e-05
-4.76627e-07
1.03059e-05
-1.37686e-07
9.97769e-07
2.49275e-08
9.46397e-07
5.77197e-08
8.47647e-07
8.77497e-08
7.33986e-07
1.16668e-07
5.84158e-07
1.40426e-07
4.25231e-07
1.59268e-07
2.49341e-07
1.68946e-07
7.88155e-08
1.67775e-07
-7.89417e-08
1.52313e-07
-2.01572e-07
1.18087e-07
-2.72033e-07
6.50944e-08
-2.739e-07
1.93722e-06
4.9435e-08
1.8812e-06
1.14588e-07
1.78525e-06
1.77462e-07
1.66397e-06
2.36679e-07
1.50936e-06
2.89078e-07
1.33433e-06
3.31657e-07
1.13864e-06
3.59611e-07
9.34547e-07
3.67688e-07
7.31745e-07
3.50474e-07
5.41451e-07
3.03482e-07
3.67005e-07
2.33788e-07
9.14636e-08
2.55226e-06
7.48053e-08
2.48852e-06
1.78274e-07
2.37994e-06
2.7954e-07
2.23747e-06
3.77056e-07
2.05316e-06
4.66881e-07
1.83617e-06
5.44903e-07
1.58518e-06
6.04915e-07
1.30929e-06
6.387e-07
1.0154e-06
6.38639e-07
7.13519e-07
5.98843e-07
4.10296e-07
5.32282e-07
4.99942e-07
3.26556e-06
9.73877e-08
3.19564e-06
2.4763e-07
3.07654e-06
3.89449e-07
2.91483e-06
5.35527e-07
2.70203e-06
6.6996e-07
2.44344e-06
7.98689e-07
2.13378e-06
9.04458e-07
1.78084e-06
9.85239e-07
1.38812e-06
1.02253e-06
9.71464e-07
1.01003e-06
5.45068e-07
9.53654e-07
1.03663e-06
4.06251e-06
1.27966e-07
3.9774e-06
3.08839e-07
3.86288e-06
5.10168e-07
3.67888e-06
6.96379e-07
3.45247e-06
8.95177e-07
3.15112e-06
1.07724e-06
2.79436e-06
1.25555e-06
2.36088e-06
1.40107e-06
1.86705e-06
1.5079e-06
1.31756e-06
1.54727e-06
7.306e-07
1.51512e-06
1.75868e-06
4.89726e-06
1.39992e-07
4.83951e-06
3.82496e-07
4.70255e-06
6.13336e-07
4.53374e-06
8.64905e-07
4.28126e-06
1.11248e-06
3.97092e-06
1.37513e-06
3.56414e-06
1.63028e-06
3.06959e-06
1.87781e-06
2.46496e-06
2.08249e-06
1.75803e-06
2.21643e-06
9.88408e-07
2.26891e-06
2.70913e-06
5.79526e-06
1.66424e-07
5.72321e-06
4.35086e-07
5.61015e-06
7.17056e-07
5.4355e-06
1.00914e-06
5.19942e-06
1.32461e-06
4.87817e-06
1.65901e-06
4.4597e-06
2.01904e-06
3.90926e-06
2.38698e-06
3.20628e-06
2.74674e-06
2.3479e-06
3.05377e-06
1.31014e-06
3.22772e-06
4.01168e-06
6.70106e-06
1.80971e-07
6.64273e-06
4.8382e-07
6.54002e-06
7.98364e-07
6.38942e-06
1.13803e-06
6.17269e-06
1.50858e-06
5.87763e-06
1.92581e-06
5.46682e-06
2.3928e-06
4.90588e-06
2.91809e-06
4.13807e-06
3.48314e-06
3.09231e-06
4.03752e-06
1.79534e-06
4.52711e-06
5.75802e-06
7.61677e-06
1.92294e-07
7.56926e-06
5.17672e-07
7.48972e-06
8.61031e-07
7.36767e-06
1.23604e-06
7.19405e-06
1.65811e-06
6.94514e-06
2.14704e-06
6.58858e-06
2.72357e-06
6.06434e-06
3.41349e-06
5.2806e-06
4.23609e-06
4.13225e-06
5.18966e-06
2.44598e-06
6.12953e-06
8.21042e-06
8.52736e-06
1.96731e-07
8.49463e-06
5.36311e-07
8.44107e-06
8.98843e-07
8.35768e-06
1.29864e-06
8.23897e-06
1.7592e-06
8.06216e-06
2.30277e-06
7.79911e-06
2.9702e-06
7.38408e-06
3.81255e-06
6.70305e-06
4.90893e-06
5.5058e-06
6.33998e-06
3.50053e-06
8.16395e-06
1.16863e-05
9.42474e-06
1.9662e-07
9.40877e-06
5.40178e-07
9.38242e-06
9.0995e-07
9.34336e-06
1.32304e-06
9.28526e-06
1.80271e-06
9.19889e-06
2.37712e-06
9.06369e-06
3.09497e-06
8.83386e-06
4.0331e-06
8.3921e-06
5.34054e-06
7.45395e-06
7.3013e-06
5.24843e-06
1.03361e-05
1.69382e-05
1.03022e-05
1.89836e-07
1.03032e-05
5.28252e-07
1.0305e-05
8.95079e-07
1.03092e-05
1.31005e-06
1.03127e-05
1.79035e-06
1.03196e-05
2.36724e-06
1.03276e-05
3.08382e-06
1.03372e-05
4.02703e-06
1.03193e-05
5.36768e-06
1.0089e-05
7.52816e-06
8.67699e-06
1.17719e-05
2.56254e-05
-2.78281e-07
2.81895e-07
-2.08279e-07
-5.88752e-08
-9.29397e-08
-1.12031e-07
6.80878e-08
-1.45021e-07
2.31786e-07
-1.60522e-07
4.12436e-07
-1.60151e-07
5.64923e-07
-1.50102e-07
7.16042e-07
-1.30287e-07
8.23004e-07
-1.062e-07
9.16213e-07
-7.69351e-08
9.57553e-07
-4.67376e-08
-1.34583e-08
9.81366e-07
3.64137e-07
-7.56918e-08
5.36936e-07
-2.22718e-07
7.21993e-07
-2.9154e-07
9.26799e-07
-3.37185e-07
1.12611e-06
-3.5343e-07
1.32326e-06
-3.43498e-07
1.49398e-06
-3.14525e-07
1.64801e-06
-2.70832e-07
1.76305e-06
-2.18149e-07
1.85329e-06
-1.58206e-07
1.90077e-06
-9.47723e-08
-2.83569e-08
1.92075e-06
4.08644e-07
-4.75215e-07
7.11653e-07
-5.15168e-07
1.00919e-06
-5.81474e-07
1.30361e-06
-6.19296e-07
1.57586e-06
-6.17555e-07
1.82692e-06
-5.8148e-07
2.03977e-06
-5.20361e-07
2.22153e-06
-4.41189e-07
2.35855e-06
-3.50628e-07
2.4608e-06
-2.5247e-07
2.51732e-06
-1.50149e-07
-4.51802e-08
2.53857e-06
5.44421e-07
-1.00494e-06
9.71026e-07
-9.28247e-07
1.38569e-06
-9.85149e-07
1.77798e-06
-9.97044e-07
2.12796e-06
-9.56857e-07
2.43593e-06
-8.75058e-07
2.69046e-06
-7.6554e-07
2.89986e-06
-6.37735e-07
3.05578e-06
-5.00234e-07
3.16917e-06
-3.56427e-07
3.23253e-06
-2.10428e-07
-6.27088e-08
3.25543e-06
7.36916e-07
-1.71633e-06
1.31719e-06
-1.48634e-06
1.86551e-06
-1.51436e-06
2.36205e-06
-1.47188e-06
2.78949e-06
-1.36664e-06
3.14947e-06
-1.21462e-06
3.43913e-06
-1.03997e-06
3.66862e-06
-8.49858e-07
3.83798e-06
-6.58158e-07
3.95724e-06
-4.62629e-07
4.02468e-06
-2.71555e-07
-7.77121e-08
4.04833e-06
9.92664e-07
-2.66657e-06
1.76422e-06
-2.22414e-06
2.46762e-06
-2.17679e-06
3.0679e-06
-2.03973e-06
3.56774e-06
-1.82764e-06
3.96406e-06
-1.58337e-06
4.27891e-06
-1.32067e-06
4.51348e-06
-1.06377e-06
4.69029e-06
-8.07157e-07
4.80485e-06
-5.64939e-07
4.87698e-06
-3.22689e-07
-9.2066e-08
4.89513e-06
1.33389e-06
-3.92565e-06
2.34876e-06
-3.18144e-06
3.21254e-06
-2.99185e-06
3.91575e-06
-2.68861e-06
4.45901e-06
-2.32903e-06
4.88021e-06
-1.95599e-06
5.19018e-06
-1.59813e-06
5.42591e-06
-1.25905e-06
5.58664e-06
-9.46279e-07
5.70196e-06
-6.49104e-07
5.76066e-06
-3.70701e-07
-9.65657e-08
5.78604e-06
1.79738e-06
-5.6852e-06
3.1101e-06
-4.44624e-06
4.14021e-06
-3.97848e-06
4.91158e-06
-3.41447e-06
5.47109e-06
-2.84857e-06
5.87735e-06
-2.32378e-06
6.16829e-06
-1.85532e-06
6.37702e-06
-1.43823e-06
6.52177e-06
-1.0651e-06
6.61775e-06
-7.24743e-07
6.67209e-06
-4.07807e-07
-1.03816e-07
6.69045e-06
2.47469e-06
-8.0921e-06
4.13075e-06
-6.0632e-06
5.29129e-06
-5.10335e-06
6.07023e-06
-4.16057e-06
6.5921e-06
-3.33904e-06
6.94615e-06
-2.6485e-06
7.18953e-06
-2.07218e-06
7.35765e-06
-1.58233e-06
7.47214e-06
-1.15876e-06
7.54653e-06
-7.81309e-07
7.58893e-06
-4.35778e-07
-1.07547e-07
7.6037e-06
3.5038e-06
-1.15777e-05
5.52188e-06
-8.06265e-06
6.70485e-06
-6.26501e-06
7.38857e-06
-4.82885e-06
7.80289e-06
-3.73392e-06
8.06295e-06
-2.89364e-06
8.23522e-06
-2.22717e-06
8.34892e-06
-1.68267e-06
8.42557e-06
-1.22113e-06
8.47378e-06
-8.18256e-07
8.50199e-06
-4.53091e-07
-1.10363e-07
8.51214e-06
5.26009e-06
-1.68251e-05
7.45245e-06
-1.02495e-05
8.39886e-06
-7.20563e-06
8.83699e-06
-5.25933e-06
9.06579e-06
-3.95394e-06
9.19896e-06
-3.01721e-06
9.28222e-06
-2.30043e-06
9.33539e-06
-1.72594e-06
9.36926e-06
-1.24495e-06
9.39e-06
-8.29e-07
9.40186e-06
-4.55918e-07
-1.08404e-07
9.40751e-06
8.68167e-06
-2.55132e-05
1.00935e-05
-1.16708e-05
1.0319e-05
-7.44196e-06
1.03395e-05
-5.28402e-06
1.03287e-05
-3.94799e-06
1.03189e-05
-3.00753e-06
1.03098e-05
-2.29225e-06
1.03022e-05
-1.7162e-06
1.02939e-05
-1.23435e-06
1.02868e-05
-8.17388e-07
1.02821e-05
-4.46576e-07
1.02825e-05
-1.04535e-07
9.55192e-07
1.89574e-08
9.084e-07
5.22089e-08
8.16632e-07
8.2932e-08
7.0581e-07
1.12222e-07
5.61337e-07
1.36627e-07
4.04317e-07
1.558e-07
2.32331e-07
1.66019e-07
6.39147e-08
1.65131e-07
-9.02645e-08
1.50059e-07
-2.09281e-07
1.16015e-07
-2.75695e-07
6.32317e-08
-2.76803e-07
1.89847e-06
3.82517e-08
1.84741e-06
1.04807e-07
1.75713e-06
1.68682e-07
1.63928e-06
2.28957e-07
1.48883e-06
2.82186e-07
1.31618e-06
3.25635e-07
1.12344e-06
3.54345e-07
9.21624e-07
3.63057e-07
7.21607e-07
3.4628e-07
5.3479e-07
2.99731e-07
3.64143e-07
2.30419e-07
8.64945e-08
2.51526e-06
6.03113e-08
2.45573e-06
1.65434e-07
2.35318e-06
2.68286e-07
2.21375e-06
3.66956e-07
2.03386e-06
4.58025e-07
1.81908e-06
5.37166e-07
1.57087e-06
5.97987e-07
1.29688e-06
6.32834e-07
1.0059e-06
6.33399e-07
7.07492e-07
5.94415e-07
4.07715e-07
5.28144e-07
4.94375e-07
3.23071e-06
8.51883e-08
3.16499e-06
2.33155e-07
3.05125e-06
3.80013e-07
2.89285e-06
5.24257e-07
2.68435e-06
6.62626e-07
2.42742e-06
7.90291e-07
2.12112e-06
8.99666e-07
1.76928e-06
9.80041e-07
1.37993e-06
1.0197e-06
9.65828e-07
1.00729e-06
5.43361e-07
9.50724e-07
1.03578e-06
4.02323e-06
1.11957e-07
3.95438e-06
3.06266e-07
3.83408e-06
4.98387e-07
3.66289e-06
6.94645e-07
3.43269e-06
8.87748e-07
3.14069e-06
1.07753e-06
2.78078e-06
1.2531e-06
2.35296e-06
1.40422e-06
1.85884e-06
1.50995e-06
1.3115e-06
1.54956e-06
7.33514e-07
1.52256e-06
1.76693e-06
4.87616e-06
1.4452e-07
4.80341e-06
3.76214e-07
4.68736e-06
6.19192e-07
4.50964e-06
8.6405e-07
4.27195e-06
1.12112e-06
3.95655e-06
1.38091e-06
3.55818e-06
1.64348e-06
3.06004e-06
1.88959e-06
2.457e-06
2.09808e-06
1.75905e-06
2.23958e-06
9.88757e-07
2.28444e-06
2.74528e-06
5.76112e-06
1.70763e-07
5.70138e-06
4.45959e-07
5.58684e-06
7.26773e-07
5.4226e-06
1.02637e-06
5.18664e-06
1.34237e-06
4.87257e-06
1.68432e-06
4.45201e-06
2.04497e-06
3.9042e-06
2.42041e-06
3.2073e-06
2.78583e-06
2.33982e-06
3.08716e-06
1.32588e-06
3.28192e-06
4.06991e-06
6.67365e-06
1.96301e-07
6.61967e-06
5.0154e-07
6.52449e-06
8.21974e-07
6.37705e-06
1.16511e-06
6.16772e-06
1.54347e-06
5.87267e-06
1.96404e-06
5.46691e-06
2.43925e-06
4.90669e-06
2.96878e-06
4.13317e-06
3.53804e-06
3.10583e-06
4.11277e-06
1.79824e-06
4.58516e-06
5.85805e-06
7.59162e-06
2.15048e-07
7.55163e-06
5.45088e-07
7.47738e-06
8.93962e-07
7.36244e-06
1.27547e-06
7.19214e-06
1.70456e-06
6.94768e-06
2.19982e-06
6.59252e-06
2.78369e-06
6.06899e-06
3.48143e-06
5.29424e-06
4.3166e-06
4.13007e-06
5.2637e-06
2.46824e-06
6.23806e-06
8.33098e-06
8.50612e-06
2.2624e-07
8.48155e-06
5.71127e-07
8.43404e-06
9.39183e-07
8.35814e-06
1.34734e-06
8.24218e-06
1.81368e-06
8.07059e-06
2.36612e-06
7.80933e-06
3.04037e-06
7.39883e-06
3.89169e-06
6.71139e-06
4.9946e-06
5.53141e-06
6.45297e-06
3.50931e-06
8.26508e-06
1.18394e-05
9.4075e-06
2.31099e-07
9.39976e-06
5.80401e-07
9.38145e-06
9.56638e-07
9.34796e-06
1.37739e-06
9.29482e-06
1.86375e-06
9.21214e-06
2.44618e-06
9.08025e-06
3.17074e-06
8.85317e-06
4.11857e-06
8.41996e-06
5.43829e-06
7.47082e-06
7.40028e-06
5.27367e-06
1.0468e-05
1.7126e-05
1.02888e-05
2.27563e-07
1.02985e-05
5.71215e-07
1.0309e-05
9.45544e-07
1.03181e-05
1.36634e-06
1.03273e-05
1.85446e-06
1.0337e-05
2.43686e-06
1.03502e-05
3.16128e-06
1.03642e-05
4.11035e-06
1.03476e-05
5.45785e-06
1.01268e-05
7.63559e-06
8.71597e-06
1.18941e-05
2.5842e-05
-2.73498e-07
2.74562e-07
-2.00749e-07
-6.35539e-08
-8.49874e-08
-1.17082e-07
7.62445e-08
-1.50207e-07
2.39008e-07
-1.65903e-07
4.16144e-07
-1.657e-07
5.66392e-07
-1.55422e-07
7.12455e-07
-1.35567e-07
8.16676e-07
-1.11115e-07
9.06657e-07
-8.12987e-08
9.48852e-07
-5.02313e-08
-1.64516e-08
9.71524e-07
3.67549e-07
-8.94225e-08
5.42976e-07
-2.31846e-07
7.29092e-07
-3.01084e-07
9.33922e-07
-3.47075e-07
1.13243e-06
-3.63311e-07
1.32738e-06
-3.53457e-07
1.49547e-06
-3.24136e-07
1.64566e-06
-2.80125e-07
1.75864e-06
-2.26397e-07
1.84674e-06
-1.65714e-07
1.89399e-06
-1.01114e-07
-3.40139e-08
1.91319e-06
4.11731e-07
-4.96624e-07
7.16953e-07
-5.29612e-07
1.01576e-06
-5.96376e-07
1.31105e-06
-6.34041e-07
1.58225e-06
-6.32533e-07
1.83204e-06
-5.95829e-07
2.04208e-06
-5.34397e-07
2.22156e-06
-4.54121e-07
2.35573e-06
-3.62848e-07
2.45675e-06
-2.6325e-07
2.51189e-06
-1.60067e-07
-5.39049e-08
2.53306e-06
5.47599e-07
-1.0353e-06
9.75586e-07
-9.49427e-07
1.39276e-06
-1.00685e-06
1.78518e-06
-1.01823e-06
2.13577e-06
-9.79506e-07
2.44182e-06
-8.95166e-07
2.695e-06
-7.87164e-07
2.90129e-06
-6.55547e-07
3.05568e-06
-5.19465e-07
3.16669e-06
-3.71299e-07
3.22927e-06
-2.26963e-07
-7.46894e-08
3.25149e-06
7.4e-07
-1.76139e-06
1.32098e-06
-1.51957e-06
1.87357e-06
-1.54569e-06
2.36699e-06
-1.50817e-06
2.80161e-06
-1.3957e-06
3.153e-06
-1.25151e-06
3.45e-06
-1.06608e-06
3.66775e-06
-8.84509e-07
3.84502e-06
-6.80193e-07
3.95199e-06
-4.93465e-07
4.02881e-06
-2.89209e-07
-1.04712e-07
4.04111e-06
9.9406e-07
-2.73213e-06
1.77071e-06
-2.27398e-06
2.4689e-06
-2.22971e-06
3.08293e-06
-2.08867e-06
3.56914e-06
-1.88502e-06
3.98261e-06
-1.629e-06
4.27805e-06
-1.3752e-06
4.53014e-06
-1.10386e-06
4.68518e-06
-8.56261e-07
4.81785e-06
-5.98325e-07
4.86817e-06
-3.65574e-07
-1.20155e-07
4.90482e-06
1.33279e-06
-4.04792e-06
2.35161e-06
-3.26511e-06
3.21856e-06
-3.07786e-06
3.92082e-06
-2.77025e-06
4.47446e-06
-2.40509e-06
4.88824e-06
-2.03249e-06
5.20657e-06
-1.66761e-06
5.4319e-06
-1.32811e-06
5.60028e-06
-1.00668e-06
5.70369e-06
-7.08859e-07
5.76947e-06
-4.21873e-07
-1.48423e-07
5.78465e-06
1.80598e-06
-5.82245e-06
3.11052e-06
-4.56062e-06
4.15078e-06
-4.08137e-06
4.92244e-06
-3.51921e-06
5.4861e-06
-2.94845e-06
5.8927e-06
-2.4201e-06
6.18513e-06
-1.94595e-06
6.392e-06
-1.52408e-06
6.5361e-06
-1.14429e-06
6.62839e-06
-7.98374e-07
6.68021e-06
-4.7573e-07
-1.67631e-07
6.69584e-06
2.47355e-06
-8.28958e-06
4.14162e-06
-6.20247e-06
5.30014e-06
-5.2412e-06
6.08548e-06
-4.28431e-06
6.61031e-06
-3.45527e-06
6.96664e-06
-2.7592e-06
7.21067e-06
-2.17647e-06
7.37865e-06
-1.68094e-06
7.4915e-06
-1.25016e-06
7.56234e-06
-8.66777e-07
7.60076e-06
-5.14949e-07
-1.82829e-07
7.61101e-06
3.51639e-06
-1.17897e-05
5.53382e-06
-8.22597e-06
6.72501e-06
-6.4044e-06
7.40978e-06
-4.96153e-06
7.82544e-06
-3.85834e-06
8.08848e-06
-3.00998e-06
8.2608e-06
-2.33835e-06
8.3756e-06
-1.78686e-06
8.44958e-06
-1.31987e-06
8.49457e-06
-9.10154e-07
8.51689e-06
-5.40035e-07
-1.93129e-07
8.52135e-06
5.27665e-06
-1.70703e-05
7.48146e-06
-1.04168e-05
8.42365e-06
-7.36121e-06
8.86394e-06
-5.39348e-06
9.09392e-06
-4.07767e-06
9.22797e-06
-3.13378e-06
9.31258e-06
-2.41142e-06
9.36574e-06
-1.83151e-06
9.39797e-06
-1.34548e-06
9.41415e-06
-9.24395e-07
9.41961e-06
-5.46821e-07
-1.96595e-07
9.41771e-06
8.72e-06
-2.57858e-05
1.01297e-05
-1.18381e-05
1.03573e-05
-7.57422e-06
1.03729e-05
-5.4084e-06
1.03611e-05
-4.06351e-06
1.03512e-05
-3.11757e-06
1.03433e-05
-2.39737e-06
1.03354e-05
-1.81813e-06
1.03256e-05
-1.33238e-06
1.03136e-05
-9.12281e-07
1.03014e-05
-5.38546e-07
1.02931e-05
-1.94622e-07
9.46364e-07
1.65708e-08
8.99676e-07
5.0263e-08
8.09656e-07
8.14808e-08
6.99993e-07
1.11023e-07
5.56815e-07
1.35607e-07
4.01392e-07
1.54891e-07
2.30398e-07
1.65142e-07
6.32548e-08
1.64302e-07
-9.0634e-08
1.49173e-07
-2.09698e-07
1.15165e-07
-2.7664e-07
6.23702e-08
-2.7829e-07
1.8914e-06
3.35855e-08
1.84059e-06
1.00728e-07
1.75128e-06
1.65432e-07
1.63431e-06
2.2606e-07
1.48489e-06
2.7978e-07
1.31352e-06
3.23371e-07
1.12176e-06
3.5223e-07
9.20847e-07
3.61006e-07
7.2136e-07
3.44388e-07
5.34364e-07
2.97818e-07
3.63161e-07
2.28407e-07
8.338e-08
2.5093e-06
5.24744e-08
2.4506e-06
1.58696e-07
2.34793e-06
2.62302e-07
2.20974e-06
3.61847e-07
2.0301e-06
4.53334e-07
1.81666e-06
5.32851e-07
1.56927e-06
5.94027e-07
1.29645e-06
6.2884e-07
1.0056e-06
6.29493e-07
7.06813e-07
5.90356e-07
4.06628e-07
5.24192e-07
4.88308e-07
3.22672e-06
7.12451e-08
3.16119e-06
2.23456e-07
3.04755e-06
3.68808e-07
2.88954e-06
5.16216e-07
2.68121e-06
6.53355e-07
2.42563e-06
7.82973e-07
2.11941e-06
8.90638e-07
1.76901e-06
9.72002e-07
1.37931e-06
1.01062e-06
9.65339e-07
9.98548e-07
5.41907e-07
9.43009e-07
1.02067e-06
4.02611e-06
9.71998e-08
3.94804e-06
2.83396e-07
3.83549e-06
4.85105e-07
3.6575e-06
6.75423e-07
3.43269e-06
8.7431e-07
3.13606e-06
1.0594e-06
2.78065e-06
1.2377e-06
2.35099e-06
1.3853e-06
1.85877e-06
1.49218e-06
1.31268e-06
1.53285e-06
7.26518e-07
1.49978e-06
1.73784e-06
4.8678e-06
1.07097e-07
4.81031e-06
3.50592e-07
4.68052e-06
5.85897e-07
4.51222e-06
8.37939e-07
4.26543e-06
1.08879e-06
3.95566e-06
1.35162e-06
3.55316e-06
1.60894e-06
3.05964e-06
1.85652e-06
2.4584e-06
2.06238e-06
1.75181e-06
2.19542e-06
9.85062e-07
2.24933e-06
2.68029e-06
5.7668e-06
1.25447e-07
5.69916e-06
3.97976e-07
5.58855e-06
6.82436e-07
5.41776e-06
9.77144e-07
5.18372e-06
1.29418e-06
4.8654e-06
1.63019e-06
4.44872e-06
1.99108e-06
3.90065e-06
2.35975e-06
3.1986e-06
2.71946e-06
2.34334e-06
3.02751e-06
1.30463e-06
3.19936e-06
3.97588e-06
6.67657e-06
1.34602e-07
6.62123e-06
4.41235e-07
6.52112e-06
7.58683e-07
6.37328e-06
1.10078e-06
6.15864e-06
1.47303e-06
5.86573e-06
1.89163e-06
5.45659e-06
2.35942e-06
4.8972e-06
2.88514e-06
4.13144e-06
3.45036e-06
3.08557e-06
4.00334e-06
1.7917e-06
4.49477e-06
5.71331e-06
7.5958e-06
1.42188e-07
7.55047e-06
4.71464e-07
7.47308e-06
8.17673e-07
7.35311e-06
1.19509e-06
7.18129e-06
1.61877e-06
6.934e-06
2.10901e-06
6.57877e-06
2.68617e-06
6.05584e-06
3.37637e-06
5.27271e-06
4.19842e-06
4.12721e-06
5.15235e-06
2.44039e-06
6.08875e-06
8.1602e-06
8.50966e-06
1.44963e-07
8.47825e-06
4.88061e-07
8.42648e-06
8.53601e-07
8.3445e-06
1.2555e-06
8.22736e-06
1.71781e-06
8.05158e-06
2.26243e-06
7.78959e-06
2.93058e-06
7.37519e-06
3.77293e-06
6.69549e-06
4.86884e-06
5.49799e-06
6.29731e-06
3.49644e-06
8.12155e-06
1.16286e-05
9.40972e-06
1.43688e-07
9.39469e-06
4.90676e-07
9.36947e-06
8.63385e-07
9.33156e-06
1.27858e-06
9.27451e-06
1.76002e-06
9.18893e-06
2.33553e-06
9.05426e-06
3.05414e-06
8.82471e-06
3.99223e-06
8.38275e-06
5.29882e-06
7.4464e-06
7.2587e-06
5.24158e-06
1.02882e-05
1.68742e-05
1.02895e-05
1.36944e-07
1.02912e-05
4.7885e-07
1.02936e-05
8.4835e-07
1.02987e-05
1.2656e-06
1.03028e-05
1.74756e-06
1.03102e-05
2.32579e-06
1.03182e-05
3.0431e-06
1.03276e-05
3.9866e-06
1.03094e-05
5.32688e-06
1.00781e-05
7.48509e-06
8.66755e-06
1.17254e-05
2.55516e-05
1.66478e-05
-9.16751e-06
-3.29657e-05
1.33223e-05
-8.34746e-06
1.22297e-05
-6.35226e-06
1.17632e-05
-4.81865e-06
1.15229e-05
-3.70641e-06
1.13831e-05
-2.86461e-06
1.12937e-05
-2.19844e-06
1.12319e-05
-1.64828e-06
1.11861e-05
-1.18128e-06
1.11522e-05
-7.7491e-07
1.11307e-05
-4.15653e-07
-9.00333e-08
1.11254e-05
1.78961e-05
-3.95793e-06
-2.31162e-05
1.50419e-05
-5.51935e-06
1.36837e-05
-5.0159e-06
1.2997e-05
-4.15226e-06
1.26173e-05
-3.34119e-06
1.23872e-05
-2.64797e-06
1.2238e-05
-2.05826e-06
1.21334e-05
-1.5514e-06
1.20564e-05
-1.10839e-06
1.19982e-05
-7.18405e-07
1.19593e-05
-3.75736e-07
-7.54922e-08
1.19466e-05
1.77445e-05
-2.01897e-06
-1.97006e-05
1.59017e-05
-3.70134e-06
1.47286e-05
-3.8662e-06
1.40258e-05
-3.46872e-06
1.35954e-05
-2.92619e-06
1.33193e-05
-2.38404e-06
1.31329e-05
-1.88089e-06
1.29993e-05
-1.42446e-06
1.28981e-05
-1.0106e-06
1.28182e-05
-6.3933e-07
1.27596e-05
-3.14909e-07
-4.72132e-08
1.27363e-05
1.75849e-05
-1.84367e-05
-1.18048e-06
1.64346e-05
-2.57371e-06
1.55256e-05
-2.98193e-06
1.48976e-05
-2.86189e-06
1.44741e-05
-2.5227e-06
1.41855e-05
-2.11154e-06
1.39818e-05
-1.69181e-06
1.38318e-05
-1.28549e-06
1.37136e-05
-9.01328e-07
1.36146e-05
-5.45268e-07
1.35322e-05
-2.3325e-07
1.34883e-05
-3.61606e-09
1.11386e-05
2.21306e-07
1.11664e-05
5.48372e-07
1.12042e-05
9.10795e-07
1.12523e-05
1.32155e-06
1.13158e-05
1.79484e-06
1.14069e-05
2.3517e-06
1.15488e-05
3.02642e-06
1.17921e-05
3.87638e-06
1.22636e-05
4.9994e-06
1.33657e-05
6.54402e-06
1.67111e-05
8.54911e-06
9.36712e-06
3.31505e-05
1.19679e-05
2.02094e-07
1.20139e-05
5.04228e-07
1.20765e-05
8.49612e-07
1.21569e-05
1.24388e-06
1.22634e-05
1.69185e-06
1.24151e-05
2.20542e-06
1.2647e-05
2.80131e-06
1.30305e-05
3.50164e-06
1.37215e-05
4.31869e-06
1.50889e-05
5.18793e-06
1.796e-05
5.69066e-06
4.10994e-06
2.32173e-05
1.2769e-05
1.72846e-07
1.2835e-05
4.40875e-07
1.292e-05
7.67521e-07
1.30248e-05