/*--------------------------------*- C++ -*----------------------------------*\
  =========                 |
  \\      /  F ield         | OpenFOAM: The Open Source CFD Toolbox
   \\    /   O peration     | Website:  https://openfoam.org
    \\  /    A nd           | Version:  6
     \\/     M anipulation  |
\*---------------------------------------------------------------------------*/
FoamFile
{
    version     2.0;
    format      ascii;
    class       volVectorField;
    location    "500";
    object      U;
}
// * * * * * * * * * * * * * * * * * * * * * * * * * * * * * * * * * * * * * //

dimensions      [0 1 -1 0 0 0 0];

internalField   nonuniform List<vector> 
3072
(
(0.0149627 0.0289037 0)
(0.00637788 0.0618123 0)
(0.0095667 0.064769 1.00738e-21)
(0.0128803 0.0619662 -4.74888e-19)
(0.0161533 0.0590568 9.21036e-19)
(0.0192488 0.0559147 -5.27522e-19)
(0.0221391 0.052666 -3.60461e-19)
(0.0248586 0.0494027 -2.23087e-18)
(0.0274379 0.0462216 3.85398e-18)
(0.0299507 0.0431755 -1.50191e-18)
(0.0324473 0.0402967 1.19752e-18)
(0.034999 0.0375662 6.55176e-19)
(0.0032157 0.0302614 6.49397e-21)
(0.00260834 0.0650362 -5.70007e-20)
(0.00658233 0.0647202 1.23977e-20)
(0.00967871 0.0615075 0)
(0.012718 0.0583968 5.0722e-19)
(0.0157638 0.0551595 -7.96737e-19)
(0.0187583 0.0518479 0)
(0.0217103 0.0485155 0)
(0.0245923 0.0452447 0)
(0.0274551 0.0420572 7.28418e-21)
(0.0302971 0.0389804 -3.48467e-18)
(0.0331809 0.0359874 -1.04709e-19)
(-0.00340518 0.034212 -6.54498e-21)
(-0.000672483 0.0721043 0)
(0.00359654 0.0702049 0)
(0.00682145 0.0659761 -5.98975e-19)
(0.0100414 0.0620643 4.16995e-19)
(0.0133464 0.0581789 -1.04725e-18)
(0.0166839 0.054324 1.34858e-18)
(0.0200218 0.0505301 0)
(0.0233285 0.0468349 0)
(0.0266192 0.0432461 -1.06812e-18)
(0.0298985 0.0397651 -1.28013e-18)
(0.0332007 0.0363691 3.74556e-18)
(-0.0102636 0.0372065 -5.13555e-21)
(-0.00525629 0.0782487 -1.03247e-19)
(-0.000611169 0.0747146 8.13391e-20)
(0.00295363 0.0694148 -2.7251e-19)
(0.00654076 0.0646118 1.05456e-18)
(0.0102384 0.060007 -1.2723e-18)
(0.0139812 0.0555769 -7.98075e-19)
(0.017722 0.0513178 -2.82063e-18)
(0.0214226 0.0472333 -2.17913e-19)
(0.0250877 0.0433004 2.12678e-18)
(0.0287205 0.0394959 2.55242e-18)
(0.0323546 0.0357833 -2.54444e-18)
(-0.018259 0.0398383 0)
(-0.0110332 0.0836904 2.5937e-20)
(-0.00596756 0.0782362 -1.56176e-19)
(-0.00188034 0.0717541 5.09495e-19)
(0.0022547 0.066013 9.3738e-20)
(0.00650533 0.0606881 6.91082e-19)
(0.0107469 0.0557257 8.14003e-19)
(0.0149518 0.0510638 9.29957e-19)
(0.0190454 0.0466736 -2.20475e-18)
(0.0230695 0.0424756 2.20475e-18)
(0.0269994 0.0384436 -3.85614e-18)
(0.0309091 0.0344874 5.31404e-18)
(-0.0279013 0.0421286 -3.22395e-20)
(-0.0181713 0.0883183 2.33451e-20)
(-0.012423 0.0805731 3.45739e-19)
(-0.007549 0.0727838 0)
(-0.0026032 0.066093 -1.30883e-18)
(0.00235287 0.0601321 1.48278e-18)
(0.00722061 0.054742 0)
(0.0119109 0.0498176 -2.07206e-18)
(0.0164241 0.0452333 2.07206e-18)
(0.0207502 0.0409101 0)
(0.0249452 0.0367361 -8.32203e-20)
(0.0290328 0.0326581 2.65652e-18)
(-0.0396622 0.0439484 0)
(-0.0269129 0.0918013 -1.40699e-19)
(-0.0200099 0.0813862 2.60705e-19)
(-0.0139041 0.072221 0)
(-0.00783471 0.064691 -7.54154e-19)
(-0.00197129 0.0582682 -9.33018e-20)
(0.00361018 0.0526597 1.73642e-18)
(0.00882604 0.0476515 2.14169e-18)
(0.0137302 0.0430519 -2.14169e-18)
(0.0183253 0.0387317 2.43495e-18)
(0.0227079 0.0345531 -2.5072e-18)
(0.0269046 0.0304455 -8.29627e-18)
(-0.0546887 0.0451054 0)
(-0.0377641 0.093746 1.40875e-19)
(-0.0288667 0.0802222 -4.50068e-19)
(-0.0208507 0.0697641 6.71839e-19)
(-0.0132932 0.0616776 0)
(-0.00629713 0.0551155 -1.68065e-18)
(4.97627e-05 0.049584 2.0236e-18)
(0.00582677 0.0447246 1.78778e-19)
(0.0110685 0.0403054 -4.57455e-18)
(0.0159089 0.0361252 -2.53764e-18)
(0.0203913 0.0320763 -8.90765e-20)
(0.0246468 0.0280171 5.54956e-18)
(-0.074398 0.0450346 0)
(-0.0512297 0.0931975 -2.42136e-19)
(-0.0388776 0.0763139 -6.31653e-19)
(-0.0281164 0.0650074 -6.69922e-19)
(-0.0186602 0.0569371 1.70836e-18)
(-0.0104193 0.0507317 0)
(-0.0032664 0.0456442 0)
(0.00300983 0.0412076 0)
(0.00856603 0.037145 0)
(0.0135626 0.0332611 2.46476e-18)
(0.0181135 0.0294259 -2.69979e-18)
(0.0223316 0.025526 2.69979e-18)
(-0.100576 0.042942 0)
(-0.0673912 0.0887455 2.40632e-19)
(-0.049363 0.0686425 -1.0935e-19)
(-0.0349912 0.0575652 8.31477e-19)
(-0.0234203 0.0504521 9.73487e-19)
(-0.0139793 0.0452551 -1.98438e-18)
(-0.00612576 0.0410212 0)
(0.000544073 0.0372648 3.81612e-20)
(0.00631728 0.0337305 -7.06901e-18)
(0.0113995 0.0302547 0)
(0.0159436 0.0267284 5.2747e-18)
(0.020068 0.0230572 -2.82345e-18)
(-0.136173 0.0368779 0)
(-0.0848738 0.0770758 3.83727e-19)
(-0.0586818 0.0557944 1.57724e-18)
(-0.0403541 0.047246 -1.65328e-18)
(-0.0269298 0.0424473 -2.7946e-18)
(-0.0166118 0.0389726 5.01218e-18)
(-0.0083165 0.0359598 2.34793e-20)
(-0.00144042 0.0330883 -2.23466e-18)
(0.00441898 0.0302003 2.40257e-18)
(0.00949411 0.0272166 -5.03767e-18)
(0.0139594 0.0240663 -7.90743e-18)
(0.0179293 0.020687 8.15953e-18)
(-0.185537 0.0223177 -2.87355e-19)
(-0.0976454 0.0507194 -1.74418e-18)
(-0.0637075 0.0364694 5.49214e-19)
(-0.0428282 0.0345203 0)
(-0.0286177 0.033549 0)
(-0.0180603 0.0323457 9.40528e-20)
(-0.00972691 0.0307773 6.62088e-18)
(-0.00287615 0.0288833 4.54129e-18)
(0.00291381 0.0266983 0)
(0.00789104 0.0242454 4.9812e-18)
(0.0122087 0.0215149 0)
(0.015973 0.0184743 6.45561e-21)
(0.0376264 0.0349552 -5.09108e-18)
(0.0403898 0.0324288 2.19031e-18)
(0.0432888 0.0299368 -2.4731e-18)
(0.0463464 0.0274232 -8.79805e-19)
(0.0495119 0.0248271 -9.41417e-19)
(0.0527581 0.0220996 0)
(0.0559741 0.0191953 0)
(0.059035 0.016089 2.33923e-18)
(0.0620245 0.0127298 -2.33923e-18)
(0.0648377 0.00945065 0)
(0.0620114 0.00620865 0)
(0.0291853 0.0147969 -5.05275e-22)
(0.0361037 0.0330769 2.67079e-18)
(0.0391172 0.0302071 0)
(0.0422101 0.0273623 7.82432e-21)
(0.0454074 0.024496 1.6579e-18)
(0.0486702 0.0215961 8.84908e-19)
(0.0519816 0.018638 3.8787e-18)
(0.0552653 0.0156338 -5.93973e-18)
(0.058434 0.0126019 1.00466e-18)
(0.0615528 0.00956211 0)
(0.0648228 0.00645887 0)
(0.0652541 0.0024811 0)
(0.030548 0.00305254 7.6663e-19)
(0.0365378 0.0330387 1.4913e-18)
(0.039948 0.0297433 -4.36881e-18)
(0.043439 0.0264582 1.60388e-18)
(0.0470345 0.023158 3.52735e-18)
(0.0507247 0.0198339 -3.52735e-18)
(0.0545044 0.016487 0)
(0.0583342 0.0131449 0)
(0.0621539 0.00985407 1.30963e-20)
(0.0660524 0.00665439 1.15419e-18)
(0.0703367 0.00344563 0)
(0.072341 -0.000839286 0)
(0.0345178 -0.00367225 -7.72167e-19)
(0.0360112 0.0321277 -1.05996e-19)
(0.0397301 0.0284933 4.48539e-18)
(0.0435387 0.0248474 3.37134e-18)
(0.047474 0.0211705 -3.37134e-18)
(0.0515545 0.0174517 0)
(0.0558026 0.0137024 1.95086e-18)
(0.0602126 0.00995491 0)
(0.0647566 0.00627145 3.31891e-18)
(0.0695301 0.00270304 -1.18797e-18)
(0.0748761 -0.000847782 0)
(0.0785011 -0.00551972 -6.6204e-19)
(0.037524 -0.01067 1.27445e-18)
(0.0347976 0.0305915 -2.90413e-18)
(0.0387495 0.02667 0)
(0.0427797 0.0227192 0)
(0.0469738 0.0186788 0)
(0.0513607 0.0145611 0)
(0.0560118 0.01035 -3.94439e-18)
(0.060959 0.0060953 8.65681e-20)
(0.0662199 0.00185197 -2.20381e-18)
(0.0719076 -0.00228183 0)
(0.0784233 -0.00634488 -1.24561e-18)
(0.0839718 -0.0114431 6.75254e-19)
(0.0401819 -0.0188668 -5.11003e-19)
(0.0330878 0.0285821 9.71561e-20)
(0.0371497 0.024466 -6.1242e-18)
(0.0413099 0.0202432 3.40103e-18)
(0.0456239 0.015882 1.99713e-19)
(0.0502005 0.0113451 6.86798e-20)
(0.0551145 0.00662808 6.01418e-18)
(0.0604801 0.00174078 2.01715e-19)
(0.0663745 -0.00323276 -6.53991e-18)
(0.073002 -0.00816034 -2.30969e-18)
(0.0808154 -0.0130405 1.26107e-18)
(0.0886212 -0.0188073 -1.31522e-18)
(0.0424828 -0.0287942 -9.74109e-19)
(0.0310189 0.0262895 8.81917e-18)
(0.0350975 0.0220489 3.19703e-18)
(0.0392457 0.017618 0)
(0.0435511 0.012972 0)
(0.0481323 0.0080285 6.64985e-20)
(0.053128 0.00276135 -3.75893e-18)
(0.0587053 -0.0028527 6.12317e-18)
(0.0650764 -0.00875468 8.8824e-20)
(0.0725073 -0.0148445 2.32417e-18)
(0.0816705 -0.0209718 0)
(0.0921863 -0.0279098 3.79877e-20)
(0.0443491 -0.0410932 1.17165e-20)
(0.0287164 0.0238873 -2.8538e-18)
(0.0327255 0.0195699 -3.10296e-18)
(0.0367352 0.0150145 3.23329e-18)
(0.0408838 0.0101147 -3.50495e-18)
(0.0452823 0.00480299 -1.78818e-19)
(0.0501186 -0.0010313 7.4145e-18)
(0.0556202 -0.00745166 -4.02952e-18)
(0.0621002 -0.0145123 2.0633e-18)
(0.0701025 -0.0221306 0)
(0.0805452 -0.0301977 1.22402e-18)
(0.0940962 -0.0391797 7.17867e-19)
(0.0454532 -0.0566147 -8.48371e-19)
(0.0263091 0.0214722 2.98698e-18)
(0.0301391 0.0171719 -2.98698e-18)
(0.0339226 0.012535 -3.22407e-18)
(0.0377615 0.00746463 -6.76068e-18)
(0.0417961 0.00182339 7.02431e-18)
(0.0461961 -0.00452601 -7.31216e-18)
(0.0512449 -0.011781 0)
(0.0573825 -0.0201057 -2.05742e-18)
(0.0653285 -0.0296678 0)
(0.0765986 -0.0405152 0)
(0.0935998 -0.0529765 0)
(0.0454433 -0.0767407 4.2777e-19)
(0.0238769 0.0191562 2.82345e-18)
(0.0274644 0.0149332 -6.01415e-18)
(0.0309225 0.0102987 6.2622e-18)
(0.0343452 0.00512653 6.47148e-18)
(0.0378376 -0.000731187 3.34988e-18)
(0.0415518 -0.00749678 0)
(0.0457328 -0.0154569 0)
(0.0508359 -0.0250171 3.80694e-18)
(0.0578362 -0.0367125 0)
(0.0688735 -0.0512172 -1.10513e-18)
(0.0890454 -0.0694943 5.93929e-19)
(0.0432742 -0.103267 -7.49461e-19)
(0.0215095 0.0170004 -5.69996e-18)
(0.0247933 0.0129239 5.96025e-18)
(0.0278609 0.00836261 -6.20607e-18)
(0.0307833 0.00319222 -1.60777e-17)
(0.0336149 -0.00275234 6.24977e-20)
(0.0364347 -0.00973679 2.063e-20)
(0.0393783 -0.0181385 -3.51677e-18)
(0.0427643 -0.0285897 -3.77282e-18)
(0.0474108 -0.0421488 0)
(0.0559247 -0.0607592 2.97331e-18)
(0.0772673 -0.0871505 6.09028e-19)
(0.0371075 -0.13911 -6.80217e-19)
(0.0192744 0.0150575 1.45409e-20)
(0.0222086 0.0111825 0)
(0.024848 0.00676226 0)
(0.0272276 0.00169467 3.11651e-18)
(0.0293478 -0.00418746 9.68073e-18)
(0.0311775 -0.011138 -3.36477e-18)
(0.032668 -0.019581 9.91635e-20)
(0.0337627 -0.0302622 -1.67679e-18)
(0.0346129 -0.0446411 -1.78737e-18)
(0.0364446 -0.0657839 -1.92293e-18)
(0.0506999 -0.0999763 0)
(0.0223602 -0.188787 5.58469e-19)
(0.0244939 -0.0192841 -7.25419e-22)
(0.0565905 -0.00759099 0)
(0.0601692 -0.0098439 -1.10119e-22)
(0.0584761 -0.012734 0)
(0.0563105 -0.0157618 5.38202e-19)
(0.0537565 -0.0187543 -5.38202e-19)
(0.0509365 -0.0215875 0)
(0.048028 -0.0243063 -1.80682e-18)
(0.0451241 -0.0268979 3.36427e-18)
(0.0423028 -0.0294487 -2.57663e-18)
(0.0395888 -0.0319737 -5.96034e-19)
(0.0369921 -0.034561 -6.50814e-19)
(0.028801 -0.00964649 -1.0177e-20)
(0.062662 -0.00540235 -6.41551e-20)
(0.0619722 -0.00812142 1.18228e-19)
(0.0589889 -0.0104828 0)
(0.0562003 -0.0130294 -5.14842e-19)
(0.0533014 -0.0157964 5.14842e-19)
(0.0502958 -0.0186068 0)
(0.0472372 -0.0214685 8.09408e-19)
(0.0441954 -0.0242961 -2.84396e-18)
(0.0411934 -0.0271443 1.92752e-18)
(0.0382654 -0.0299809 2.34039e-18)
(0.0353947 -0.0328735 -3.67043e-18)
(0.0334595 -0.000871164 4.3137e-21)
(0.0707023 -0.00167142 0)
(0.0683546 -0.00522105 -1.1558e-19)
(0.0640666 -0.00787374 0)
(0.0602543 -0.0106408 0)
(0.0565473 -0.0136371 -7.23094e-19)
(0.0528965 -0.0167538 2.93767e-18)
(0.0493066 -0.0199568 -2.42806e-18)
(0.045798 -0.023176 9.5384e-19)
(0.0423715 -0.0264206 0)
(0.0390274 -0.0296711 2.34292e-18)
(0.0357485 -0.0329623 -1.27506e-18)
(0.0367205 0.00730866 -6.02431e-21)
(0.0772996 0.00347756 2.75414e-20)
(0.0733883 -0.000739155 1.18963e-19)
(0.0679472 -0.0039163 4.64417e-19)
(0.0631479 -0.00712902 -4.64417e-19)
(0.0586167 -0.0105859 -6.47375e-19)
(0.0543283 -0.0140977 0)
(0.0502033 -0.0177321 0)
(0.0462835 -0.0213103 1.01359e-18)
(0.0424674 -0.0249478 0)
(0.0388057 -0.0285186 7.18404e-21)
(0.0351746 -0.0321591 1.31238e-18)
(0.0395 0.0161472 2.48802e-20)
(0.0830084 0.00970662 -3.46957e-21)
(0.0772314 0.0049187 -1.57991e-19)
(0.070627 0.00115479 0)
(0.064809 -0.00274096 0)
(0.0595445 -0.00671908 7.28504e-19)
(0.0546404 -0.0108364 0)
(0.0501186 -0.0148699 -1.98185e-18)
(0.0458161 -0.0189323 -1.24106e-18)
(0.0417659 -0.0228594 2.18908e-18)
(0.0378033 -0.0268067 -3.8253e-18)
(0.0339762 -0.0306587 2.58525e-18)
(0.0418848 0.0262855 -7.5924e-21)
(0.0877962 0.0171568 -3.84297e-20)
(0.0798407 0.0116155 1.59952e-19)
(0.0718696 0.00702162 -3.87925e-20)
(0.0651456 0.00230615 5.65861e-19)
(0.0591793 -0.00243926 -1.51931e-18)
(0.0538463 -0.00716627 1.85154e-18)
(0.0490085 -0.0117377 1.37608e-19)
(0.0445148 -0.0161944 0)
(0.0402965 -0.0204737 0)
(0.0362066 -0.024662 5.17532e-18)
(0.0322291 -0.0287383 1.82922e-19)
(0.0438283 0.0386193 -2.70861e-20)
(0.0914677 0.0261837 -1.01748e-19)
(0.08085 0.0195084 0)
(0.0715799 0.013536 -5.30374e-19)
(0.0639489 0.00773512 7.22693e-19)
(0.057483 0.00198205 2.45817e-18)
(0.0519311 -0.00339099 1.87675e-18)
(0.0469523 -0.00858001 6.47947e-20)
(0.0424681 -0.0133577 -4.55502e-18)
(0.03819 -0.0179907 2.30983e-18)
(0.0341473 -0.0223092 2.67727e-18)
(0.0300716 -0.0265636 8.78091e-20)
(0.04493 0.0541646 1.43824e-20)
(0.0934956 0.0374229 1.41261e-19)
(0.0798503 0.0286002 0)
(0.0692378 0.0207407 -6.70489e-19)
(0.0610823 0.0133029 -7.23598e-19)
(0.0544965 0.00648201 1.49819e-19)
(0.0489627 0.000228406 -3.70252e-18)
(0.0441583 -0.00543304 1.18869e-19)
(0.0397839 -0.0106514 6.01352e-20)
(0.0356954 -0.0154459 2.45345e-18)
(0.0317135 -0.0199591 -2.65392e-18)
(0.0277571 -0.024206 -7.53736e-20)
(0.0450014 0.0743846 -1.39909e-19)
(0.0930145 0.0512439 9.21497e-20)
(0.0760024 0.0389003 -8.81603e-19)
(0.0646345 0.0281958 6.68576e-19)
(0.0564668 0.0188339 0)
(0.0502231 0.0107092 0)
(0.0451277 0.00364871 2.04441e-18)
(0.0407192 -0.00254511 4.436e-18)
(0.0366978 -0.00806279 -2.23994e-18)
(0.0328859 -0.0130411 -2.44645e-18)
(0.0291314 -0.0176089 -2.59753e-18)
(0.0253256 -0.0218505 0)
(0.0428174 0.101097 -3.44842e-23)
(0.0885497 0.0677205 3.55255e-19)
(0.0683619 0.0496378 1.36401e-18)
(0.0571875 0.0352564 0)
(0.0500483 0.0237205 1.83046e-18)
(0.0448164 0.0143475 0)
(0.0405732 0.00657367 1.13401e-19)
(0.0368289 -3.12667e-05 -2.04471e-18)
(0.0333314 -0.0057616 2.46291e-18)
(0.0299206 -0.0108329 0)
(0.0264795 -0.0153937 0)
(0.0229104 -0.0195526 -5.47967e-18)
(0.0367696 0.137003 -3.45843e-19)
(0.0767922 0.0854189 3.84439e-19)
(0.0554362 0.0591066 1.16926e-19)
(0.0468967 0.0407168 -1.82676e-18)
(0.0420591 0.0272957 -8.39804e-19)
(0.0385654 0.0170138 -9.74254e-19)
(0.0355475 0.00878477 -2.1761e-18)
(0.0326813 0.00196491 -6.88877e-18)
(0.0298292 -0.00384536 -2.38708e-18)
(0.0269059 -0.00890894 -5.0072e-18)
(0.0238488 -0.0133883 5.22351e-18)
(0.0205786 -0.0173977 5.43055e-18)
(0.0220786 0.186784 5.28906e-19)
(0.0503129 0.098256 -1.79059e-19)
(0.0360311 0.0641811 1.14958e-19)
(0.0340788 0.0432236 1.80628e-18)
(0.0331414 0.0289868 0)
(0.0319453 0.0184553 -2.13541e-18)
(0.0303754 0.0101717 2.1517e-18)
(0.0284916 0.00338335 2.23034e-18)
(0.0263385 -0.00235781 -7.15553e-18)
(0.0239495 -0.00731074 4.95107e-18)
(0.021316 -0.0116409 -5.16495e-18)
(0.0183951 -0.0154443 0)
(0.0344903 -0.037221 2.23149e-18)
(0.0320535 -0.0400221 -6.10191e-18)
(0.0296329 -0.0429514 1.5284e-18)
(0.0271778 -0.0460396 4.5072e-18)
(0.0246317 -0.0492325 -4.56419e-18)
(0.0219452 -0.0525076 9.98688e-19)
(0.0190756 -0.0557481 6.88863e-20)
(0.0159986 -0.058839 -9.91222e-19)
(0.0126642 -0.0618595 -2.32378e-18)
(0.00940522 -0.0647155 0)
(0.00617857 -0.0619436 0)
(0.0147577 -0.0291546 -4.97037e-22)
(0.0325859 -0.0358079 -2.06e-19)
(0.0297989 -0.0388403 2.75563e-18)
(0.0270227 -0.0419516 8.24378e-21)
(0.0242142 -0.0451689 0)
(0.021364 -0.0484502 2.62213e-18)
(0.0184472 -0.0517811 0)
(0.0154789 -0.055082 1.98281e-18)
(0.0124764 -0.0582722 3.23031e-18)
(0.00946145 -0.0614152 -2.17299e-18)
(0.00637872 -0.0647197 0)
(0.00241746 -0.0651984 0)
(0.00296501 -0.0305261 -3.05714e-22)
(0.0325154 -0.0362976 1.48271e-18)
(0.0293023 -0.0397139 -1.3815e-18)
(0.0260861 -0.0432161 1.59167e-18)
(0.0228462 -0.0468262 0)
(0.0195721 -0.0505307 -1.81482e-18)
(0.0162702 -0.0543263 3.96644e-18)
(0.0129625 -0.0581694 -4.91553e-18)
(0.00970399 -0.0620045 -5.42691e-18)
(0.00652856 -0.0659245 3.38624e-18)
(0.00334406 -0.0702422 0)
(-0.000925109 -0.0722905 6.46491e-19)
(-0.0037882 -0.0344984 2.56138e-19)
(0.0316322 -0.0357838 1.41574e-18)
(0.028051 -0.0395243 -3.03032e-18)
(0.0244927 -0.0433241 3.34382e-18)
(0.0208538 -0.0472857 -3.34382e-18)
(0.0172031 -0.0513709 0)
(0.0134813 -0.0556388 1.93538e-18)
(0.00978507 -0.0600555 2.17252e-18)
(0.00612416 -0.0646173 1.24496e-18)
(0.00259107 -0.0694079 -2.29215e-18)
(-0.000939968 -0.0747869 0)
(-0.00560285 -0.0784546 -6.87434e-19)
(-0.0107558 -0.0375091 9.91351e-19)
(0.0301272 -0.0345808 2.97336e-18)
(0.0263043 -0.0384994 -1.43279e-18)
(0.0223891 -0.0425717 0)
(0.0184269 -0.0467568 0)
(0.0143425 -0.0511815 1.82891e-18)
(0.0101934 -0.0558357 -1.97401e-18)
(0.00597166 -0.0608082 4.06995e-20)
(0.00177184 -0.0660713 0)
(-0.00233641 -0.071789 -1.18465e-18)
(-0.00639181 -0.0783192 1.23696e-18)
(-0.0114475 -0.0839342 -1.33074e-18)
(-0.0188575 -0.0401946 -4.95262e-19)
(0.0282079 -0.0327965 -5.80655e-18)
(0.0241791 -0.036868 2.99484e-18)
(0.0199974 -0.0410391 6.62725e-18)
(0.0157195 -0.0453839 1.98486e-19)
(0.0112261 -0.049978 -9.05944e-18)
(0.00658165 -0.0549248 -3.8458e-18)
(0.00173341 -0.0603021 4.67679e-20)
(-0.00319322 -0.0662198 0)
(-0.00810471 -0.0728412 0)
(-0.0129219 -0.0807211 -1.25232e-18)
(-0.0186942 -0.0885968 -6.38504e-19)
(-0.0285602 -0.0424675 4.88449e-19)
(0.026042 -0.0306426 2.99775e-18)
(0.021825 -0.0347671 -6.06953e-18)
(0.0175128 -0.0389134 -3.27635e-18)
(0.012913 -0.0432625 1.20808e-19)
(0.00807463 -0.0478673 3.85584e-18)
(0.00286105 -0.0528996 4.0791e-18)
(-0.00268251 -0.058497 2.1036e-18)
(-0.00854486 -0.064877 2.20844e-18)
(-0.0145621 -0.0723664 -2.20844e-18)
(-0.0206757 -0.0815365 0)
(-0.0275394 -0.0921521 1.31473e-18)
(-0.040575 -0.044426 -4.59574e-19)
(0.0236939 -0.0283131 0)
(0.0194772 -0.0323237 3.07562e-18)
(0.0150075 -0.0363749 0)
(0.0102187 -0.0405465 -5.93713e-20)
(0.00499574 -0.0449892 -1.78107e-19)
(-0.000746319 -0.0498538 7.35373e-18)
(-0.00710104 -0.0553878 -7.88592e-18)
(-0.0140795 -0.0619075 0)
(-0.0216476 -0.0699006 -2.16548e-18)
(-0.0296309 -0.080447 1.21595e-18)
(-0.038581 -0.0940946 -1.86675e-18)
(-0.0557916 -0.0454282 1.30819e-18)
(0.0213653 -0.0258543 2.96173e-18)
(0.0171691 -0.029717 -2.96173e-18)
(0.0126539 -0.0335303 -3.16001e-18)
(0.00769131 -0.0374156 3.30111e-18)
(0.002171 -0.0414835 3.56316e-18)
(-0.00409767 -0.0459281 -1.08545e-17)
(-0.0112512 -0.0510076 3.87744e-18)
(-0.0195072 -0.0571733 0)
(-0.028973 -0.0651983 2.1593e-18)
(-0.0397545 -0.0764686 0)
(-0.0521514 -0.093567 1.79502e-18)
(-0.075648 -0.0455313 -1.61862e-18)
(0.0191162 -0.0234004 0)
(0.0150202 -0.0270291 -5.96611e-18)
(0.0105091 -0.0305333 -3.07201e-18)
(0.00546801 -0.0340015 -6.60399e-18)
(-0.00028255 -0.0375398 3.3234e-18)
(-0.00694425 -0.0412932 3.57888e-18)
(-0.0148132 -0.0455206 0)
(-0.0242803 -0.0506738 0)
(-0.0358886 -0.0576856 0)
(-0.0503058 -0.068829 0)
(-0.0684876 -0.0890671 -5.76629e-19)
(-0.102015 -0.0432522 4.77791e-20)
(0.0170168 -0.0210279 2.88917e-18)
(0.013077 -0.0243627 3.02346e-18)
(0.0086475 -0.0274903 1.22505e-17)
(0.00361072 -0.0304615 3.0758e-18)
(-0.00223194 -0.0333472 1.31312e-17)
(-0.00910685 -0.0362101 -3.35802e-18)
(-0.0174258 -0.039204 -3.49415e-18)
(-0.0277814 -0.0426352 0)
(-0.0412504 -0.04737 -3.73479e-18)
(-0.0597481 -0.0558964 -1.93447e-18)
(-0.0861064 -0.0772804 -1.00679e-18)
(-0.137645 -0.0371629 -4.16976e-26)
(0.0151155 -0.0188032 0)
(0.0113813 -0.0218009 0)
(0.00710144 -0.0245051 -1.19944e-17)
(0.00215388 -0.0269452 -9.39333e-18)
(-0.00362145 -0.0291186 -3.31159e-18)
(-0.0104809 -0.0309999 0)
(-0.0188389 -0.032544 3.45498e-18)
(-0.0294362 -0.0337056 0)
(-0.0437324 -0.0346015 1.67533e-19)
(-0.0648173 -0.036515 1.91279e-18)
(-0.0988476 -0.0508437 5.08755e-19)
(-0.187136 -0.0224554 1.15404e-18)
(-0.014955 -0.0288998 -1.42317e-20)
(-0.00637276 -0.0618043 -5.73564e-20)
(-0.00956024 -0.0647561 5.73564e-20)
(-0.0128722 -0.0619494 -1.65105e-19)
(-0.016143 -0.0590364 0)
(-0.019236 -0.0558912 2.99361e-19)
(-0.0221234 -0.05264 0)
(-0.02484 -0.0493747 4.24222e-19)
(-0.0274163 -0.0461924 -1.55783e-18)
(-0.0299264 -0.043146 1.50332e-18)
(-0.0324205 -0.0402677 3.69931e-18)
(-0.0349705 -0.0375385 -1.19419e-18)
(-0.00319686 -0.0302583 -6.88831e-21)
(-0.00259575 -0.0650294 -5.67385e-20)
(-0.00656858 -0.064709 5.67385e-20)
(-0.0096637 -0.0614929 1.55194e-19)
(-0.0127012 -0.0583791 -5.06585e-19)
(-0.0157452 -0.0551391 -6.40042e-20)
(-0.0187374 -0.0518252 -6.96564e-19)
(-0.0216872 -0.0484911 -2.11397e-18)
(-0.0245669 -0.0452193 2.73985e-18)
(-0.0274277 -0.0420314 -9.08454e-19)
(-0.030268 -0.038955 4.40279e-21)
(-0.0331507 -0.0359629 1.03483e-19)
(0.00343535 -0.0342089 1.31832e-20)
(0.00069305 -0.0720975 0)
(-0.00357491 -0.0701939 0)
(-0.00679864 -0.0659617 -1.81725e-19)
(-0.010017 -0.0620469 0)
(-0.0133203 -0.0581588 -3.25393e-19)
(-0.0166559 -0.0543017 7.24997e-19)
(-0.0199919 -0.0505062 1.8148e-18)
(-0.0232967 -0.0468099 -7.51117e-19)
(-0.0265857 -0.0432206 -2.0246e-18)
(-0.0298637 -0.0397398 -3.63569e-18)
(-0.033165 -0.0363444 3.74229e-18)
(0.0103043 -0.0372036 1.56143e-20)
(0.00528494 -0.0782422 -2.53338e-20)
(0.000640757 -0.0747038 1.30209e-19)
(-0.00292268 -0.0694007 1.87044e-19)
(-0.00650856 -0.0645946 0)
(-0.0102047 -0.0599872 -1.47372e-18)
(-0.0139459 -0.0555548 1.44145e-18)
(-0.0176851 -0.0512941 0)
(-0.0213841 -0.0472085 2.10612e-18)
(-0.0250478 -0.0432751 -3.23461e-18)
(-0.0286796 -0.0394704 2.54231e-18)
(-0.0323131 -0.0357581 1.04915e-19)
(0.0183144 -0.0398362 -1.54818e-20)
(0.011072 -0.0836846 6.24795e-20)
(0.00600759 -0.0782263 2.32082e-20)
(0.00192073 -0.0717406 0)
(-0.00221286 -0.0659964 -6.44125e-19)
(-0.00646304 -0.0606686 1.33464e-18)
(-0.0107032 -0.0557041 0)
(-0.0149075 -0.0510402 -9.57316e-19)
(-0.0189997 -0.046649 -1.16361e-18)
(-0.0230231 -0.04245 2.20308e-18)
(-0.026952 -0.0384179 0)
(-0.0308617 -0.0344615 -2.70006e-18)
(0.0279768 -0.0421253 2.50944e-20)
(0.0182265 -0.0883128 4.27459e-20)
(0.012478 -0.0805639 -1.57953e-19)
(0.00760391 -0.0727712 -1.092e-18)
(0.0026574 -0.0660771 -1.32248e-19)
(-0.00229893 -0.0601131 1.48198e-18)
(-0.00716725 -0.0547206 0)
(-0.0118574 -0.0497944 2.96973e-18)
(-0.0163707 -0.0452087 -2.27002e-18)
(-0.0206964 -0.0408846 2.27002e-18)
(-0.0248914 -0.0367099 -8.30404e-20)
(-0.028979 -0.0326315 -1.84864e-19)
(0.0397718 -0.043948 -4.55476e-20)
(0.0269932 -0.0917973 -6.48395e-20)
(0.0200871 -0.0813778 0)
(0.0139784 -0.0722087 1.15752e-18)
(0.00790521 -0.0646745 -2.10609e-18)
(0.00203914 -0.0582486 2.23114e-20)
(-0.00354532 -0.0526374 -3.62159e-18)
(-0.00876273 -0.0476277 1.2744e-19)
(-0.0136686 -0.0430264 -2.14051e-18)
(-0.0182641 -0.0387055 -2.43351e-18)
(-0.0226476 -0.0345255 2.69787e-18)
(-0.0268447 -0.0304177 -2.67829e-18)
(0.0548382 -0.0451023 1.26449e-20)
(0.0378735 -0.0937389 -5.88519e-20)
(0.0289697 -0.0802103 0)
(0.0209453 -0.0697476 6.71927e-19)
(0.0133809 -0.0616573 7.47558e-19)
(0.00637821 -0.0550921 8.68778e-19)
(2.67086e-05 -0.0495589 -1.34564e-19)
(-0.00575453 -0.044698 -1.78534e-19)
(-0.0109987 -0.0402781 -2.48202e-18)
(-0.0158411 -0.0360966 -1.97399e-19)
(-0.0203246 -0.0320469 -7.06033e-20)
(-0.0245815 -0.0279868 0)
(0.0745925 -0.0450307 6.34705e-20)
(0.0513699 -0.093186 0)
(0.0390034 -0.076294 0)
(0.0282289 -0.0649824 -6.7001e-19)
(0.0187613 -0.0569088 7.86985e-19)
(0.0105115 -0.0507017 -1.88896e-18)
(0.00335164 -0.0456134 0)
(-0.00292985 -0.0411768 2.25306e-18)
(-0.0084897 -0.0371141 5.2818e-20)
(-0.0134888 -0.0332296 2.46347e-18)
(-0.0180413 -0.0293937 -2.63517e-18)
(-0.022261 -0.0254931 5.54436e-18)
(0.100819 -0.0429286 2.90859e-19)
(0.0675608 -0.0887177 -1.14724e-19)
(0.0495075 -0.0686058 -7.37737e-19)
(0.0351159 -0.0575258 -1.66923e-18)
(0.0235303 -0.0504121 0)
(0.0140785 -0.0452159 1.87723e-18)
(0.00621697 -0.0409833 -4.27939e-18)
(-0.000458731 -0.0372286 2.19303e-18)
(-0.00623604 -0.0336953 2.47684e-18)
(-0.0113209 -0.0302198 0)
(-0.0158667 -0.0266931 -2.65333e-18)
(-0.0199928 -0.0230218 -5.50991e-18)
(0.136463 -0.036851 -3.32426e-19)
(0.0850634 -0.0770229 1.5299e-19)
(0.0588352 -0.0557331 7.31124e-19)
(0.0404833 -0.0471877 7.46644e-19)
(0.0270429 -0.0423934 -6.92704e-20)
(0.0167138 -0.0389231 -3.17592e-18)
(0.00841056 -0.0359143 4.18841e-18)
(0.00152882 -0.0330463 9.15715e-18)
(-0.00433447 -0.0301607 -7.05678e-18)
(-0.00941179 -0.0271783 -5.03609e-18)
(-0.0138787 -0.0240279 5.22488e-18)
(-0.0178501 -0.0206492 0)
(0.185919 -0.0222623 8.22445e-19)
(0.0978384 -0.0506217 2.94935e-19)
(0.0638556 -0.0363764 4.35486e-19)
(0.0429526 -0.0344413 1.97373e-18)
(0.0287277 -0.0334809 0)
(0.0181608 -0.0322861 2.04642e-18)
(0.00982089 -0.0307246 -4.46261e-18)
(0.00296545 -0.0288359 -2.19106e-18)
(-0.00282746 -0.0266549 -2.35002e-18)
(-0.00780629 -0.0242037 4.97963e-18)
(-0.0121251 -0.0214738 2.568e-18)
(-0.0158908 -0.0184341 8.07964e-18)
(-0.0375965 -0.0349293 -7.10534e-19)
(-0.0403594 -0.0324051 7.65374e-19)
(-0.0432584 -0.0299157 -2.59111e-18)
(-0.0463168 -0.0274049 7.95176e-18)
(-0.0494836 -0.0248115 -3.65276e-18)
(-0.0527318 -0.0220866 0)
(-0.0559503 -0.0191848 -2.20343e-18)
(-0.0590143 -0.0160807 1.63608e-18)
(-0.0620074 -0.0127233 0)
(-0.0648246 -0.00944564 -1.03952e-21)
(-0.0620037 -0.0062048 0)
(-0.0291814 -0.0147912 -1.51648e-19)
(-0.0360727 -0.0330537 -5.33827e-18)
(-0.0390863 -0.0301855 2.76834e-18)
(-0.0421796 -0.0273425 3.19689e-18)
(-0.045378 -0.024478 -1.55101e-18)
(-0.0486425 -0.0215801 0)
(-0.051956 -0.0186237 0)
(-0.0552423 -0.015621 2.0594e-18)
(-0.058414 -0.0125904 -2.0594e-18)
(-0.0615363 -0.00955158 0)
(-0.0648103 -0.00644908 6.29228e-19)
(-0.0652467 -0.00247183 4.69269e-20)
(-0.0305446 -0.00303855 -1.00037e-18)
(-0.0365019 -0.033015 1.38515e-18)
(-0.0399123 -0.0297208 -2.98166e-18)
(-0.0434043 -0.026437 0)
(-0.0470013 -0.0231383 -3.41038e-18)
(-0.0506934 -0.0198155 -3.75346e-18)
(-0.0544756 -0.0164698 7.74607e-18)
(-0.0583083 -0.0131286 -6.03585e-18)
(-0.0621313 -0.00983841 0)
(-0.0660337 -0.00663906 0)
(-0.0703224 -0.00343041 0)
(-0.0723324 0.000854408 -6.54507e-19)
(-0.0345139 0.0036948 2.56669e-19)
(-0.0359697 -0.0321031 -1.42568e-18)
(-0.0396893 -0.0284696 8.86486e-21)
(-0.0434991 -0.0248248 0)
(-0.0474361 -0.0211491 1.98062e-20)
(-0.0515188 -0.0174312 0)
(-0.0557696 -0.0136826 0)
(-0.0601827 -0.00993537 2.10303e-18)
(-0.0647304 -0.0062518 -2.28835e-18)
(-0.0695081 -0.00268298 2.28835e-18)
(-0.0748591 0.000868301 0)
(-0.0784909 0.0055408 -6.61539e-19)
(-0.0375195 0.0107015 -1.27354e-18)
(-0.0347502 -0.0305662 5.89064e-18)
(-0.0387032 -0.0266452 -1.44413e-18)
(-0.0427347 -0.0226956 3.39803e-18)
(-0.0469307 -0.0186559 1.97226e-18)
(-0.0513198 -0.0145389 -5.45144e-18)
(-0.0559738 -0.0103279 0)
(-0.0609241 -0.00607278 -2.0706e-18)
(-0.0661889 -0.00182838 0)
(-0.0718814 0.00230673 0)
(-0.0784027 0.00637196 1.24458e-18)
(-0.0839586 0.0114721 -1.4165e-20)
(-0.0401758 0.0189101 1.48727e-18)
(-0.0330348 -0.0285557 -3.11504e-18)
(-0.0370977 -0.0244402 -8.14651e-20)
(-0.0412596 -0.0202181 0)
(-0.0455755 -0.0158577 0)
(-0.0501544 -0.0113211 -5.60807e-18)
(-0.0550708 -0.00660354 3.8076e-18)
(-0.0604394 -0.00171473 4.14568e-18)
(-0.0663377 0.00326127 2.26947e-18)
(-0.0729697 0.00819279 -4.57709e-18)
(-0.0807889 0.013077 -1.26003e-18)
(-0.088604 0.018848 0)
(-0.0424747 0.0288547 1.45557e-18)
(-0.0309604 -0.0262613 -5.95322e-18)
(-0.0350404 -0.0220214 3.04514e-18)
(-0.0391906 -0.017591 3.37433e-18)
(-0.0434979 -0.0129459 6.39075e-20)
(-0.0480809 -0.008002 6.94405e-20)
(-0.0530784 -0.00273357 -3.81242e-18)
(-0.0586578 0.00288355 -6.08289e-18)
(-0.0650315 0.00879035 -2.12494e-18)
(-0.0724669 0.0148863 2.32208e-18)
(-0.0816365 0.0210213 0)
(-0.0921621 0.0279669 1.95818e-18)
(-0.0443372 0.041175 -9.31938e-19)
(-0.0286524 -0.0238571 5.9444e-18)
(-0.0326637 -0.0195401 -2.98604e-18)
(-0.0366753 -0.0149857 -3.23054e-18)
(-0.0408258 -0.0100866 -6.94432e-18)
(-0.0452254 -0.00477443 7.12597e-18)
(-0.0500623 0.00106209 -5.44906e-20)
(-0.0555642 0.00748679 1.18125e-17)
(-0.0620459 0.0145542 2.1276e-18)
(-0.0700505 0.0221822 2.17863e-18)
(-0.0804986 0.0302611 0)
(-0.0940644 0.0392542 -1.2859e-18)
(-0.0454389 0.0567226 -9.04793e-19)
(-0.0262402 -0.0214397 0)
(-0.0300726 -0.0171403 3.06823e-18)
(-0.0338582 -0.0125051 3.22133e-18)
(-0.0376986 -0.00743579 -3.42908e-18)
(-0.0417333 -0.00179438 -4.28411e-20)
(-0.0461322 0.00455738 -3.6257e-18)
(-0.0511792 0.0118174 -3.90392e-18)
(-0.0573147 0.0201508 0)
(-0.0652611 0.0297255 -2.17242e-18)
(-0.0765368 0.0405894 -1.16948e-18)
(-0.0935536 0.0530701 2.97302e-18)
(-0.045421 0.0768818 -8.09359e-19)
(-0.0238037 -0.0191217 0)
(-0.0273936 -0.0149006 0)
(-0.0308539 -0.0102687 0)
(-0.0342776 -0.00509861 -9.85451e-18)
(-0.0377692 0.000758453 6.69277e-18)
(-0.04148 0.00752577 7.08957e-18)
(-0.0456561 0.0154908 0)
(-0.0507538 0.0250599 -3.80264e-18)
(-0.0577489 0.03677 0)
(-0.0687863 0.0512974 -2.08052e-18)
(-0.0889763 0.0696074 -5.79686e-19)
(-0.0432402 0.103449 -7.48564e-19)
(-0.0214327 -0.0169641 0)
(-0.0247191 -0.0128908 0)
(-0.0277891 -0.00833322 6.13496e-18)
(-0.0307122 -0.00316644 9.70854e-18)
(-0.0335417 0.00277603 -3.52352e-20)
(-0.0363562 0.00976067 3.39943e-18)
(-0.0392914 0.0181655 -1.81545e-18)
(-0.0426661 0.0286244 5.584e-18)
(-0.0473004 0.0421981 3.75137e-18)
(-0.0558038 0.0608343 2.06187e-18)
(-0.0771584 0.0872748 -1.01023e-18)
(-0.0370503 0.139343 -6.65467e-19)
(-0.0191947 -0.0150197 0)
(-0.022132 -0.011149 0)
(-0.024774 -0.00673408 -6.06619e-18)
(-0.0271543 -0.00167186 3.02792e-18)
(-0.0292716 0.00420618 -3.33231e-18)
(-0.0310942 0.0111545 -3.36132e-18)
(-0.0325731 0.0195976 3.37442e-18)
(-0.0336515 0.0302826 0)
(-0.0344794 0.0446703 -3.70932e-18)
(-0.0362813 0.0658379 -1.80278e-18)
(-0.0505265 0.100083 1.48697e-18)
(-0.0222634 0.189147 -1.06607e-18)
(-0.0288661 0.0148727 -4.95598e-22)
(-0.0617432 0.00631743 0)
(-0.0646729 0.00949359 0)
(-0.0618673 0.012798 -3.66074e-19)
(-0.0589642 0.0160632 5.86133e-19)
(-0.0558497 0.0191599 0)
(-0.0526341 0.022061 0)
(-0.0494112 0.0247989 4.10719e-19)
(-0.0462695 0.0274051 4.7219e-19)
(-0.0432493 0.0299459 1.58282e-18)
(-0.0403754 0.0324621 3.03368e-18)
(-0.0376407 0.0350243 -5.26525e-19)
(-0.0302398 0.00300235 2.63135e-20)
(-0.0649899 0.00246288 0)
(-0.0646533 0.00642222 0)
(-0.0614414 0.00950842 -1.5038e-19)