/*--------------------------------*- C++ -*----------------------------------*\
  =========                 |
  \\      /  F ield         | OpenFOAM: The Open Source CFD Toolbox
   \\    /   O peration     | Website:  https://openfoam.org
    \\  /    A nd           | Version:  6
     \\/     M anipulation  |
\*---------------------------------------------------------------------------*/
FoamFile
{
    version     2.0;
    format      ascii;
    class       surfaceScalarField;
    location    "2000";
    object      phi;
}
// * * * * * * * * * * * * * * * * * * * * * * * * * * * * * * * * * * * * * //

dimensions      [0 3 -1 0 0 0 0];

internalField   nonuniform List<scalar> 
1468
(
-1.04706e-06
1.06313e-06
-2.1354e-06
9.20713e-07
-2.65893e-06
5.81423e-07
-3.79526e-06
9.28428e-07
-4.61876e-06
9.09241e-07
-5.55746e-06
7.22882e-07
-5.94654e-06
4.99388e-07
-6.45817e-06
3.0908e-07
-6.50818e-06
1.77991e-07
-6.76062e-06
7.3369e-08
-6.63886e-06
1.7151e-08
-2.66027e-08
-6.76001e-06
-4.6734e-06
5.71472e-06
-5.88384e-06
2.09527e-06
-6.1458e-06
8.38421e-07
-5.69238e-06
4.48453e-07
-5.06135e-06
2.75952e-07
-4.50862e-06
1.44406e-07
-4.0514e-06
4.34087e-08
-3.7376e-06
-2.75566e-08
-3.48708e-06
-6.73884e-08
-3.34331e-06
-8.81295e-08
-3.22969e-06
-8.75453e-08
-7.63968e-08
-3.19153e-06
-1.17413e-06
6.87312e-06
-1.7321e-06
2.63764e-06
-1.48487e-06
5.8766e-07
-1.065e-06
1.80549e-08
-6.1916e-07
-1.72137e-07
-2.31692e-07
-2.52809e-07
9.5271e-08
-2.84308e-07
3.46361e-07
-2.8689e-07
5.4556e-07
-2.65481e-07
6.79988e-07
-2.28618e-07
7.73226e-07
-1.77796e-07
-1.1993e-07
8.13604e-07
-1.81819e-06
8.64383e-06
-5.91664e-07
1.3903e-06
1.33514e-07
-1.44527e-07
6.6476e-07
-5.20601e-07
1.10716e-06
-6.16205e-07
1.47735e-06
-6.28798e-07
1.78812e-06
-5.94468e-07
2.03587e-06
-5.3938e-07
2.23138e-06
-4.58616e-07
2.37006e-06
-3.70743e-07
2.46311e-06
-2.66768e-07
-1.64273e-07
2.50535e-06
-1.06817e-06
9.65811e-06
-3.46098e-08
3.2327e-07
8.46996e-07
-1.0468e-06
1.49822e-06
-1.17498e-06
1.99986e-06
-1.13712e-06
2.42133e-06
-1.04341e-06
2.75164e-06
-9.42169e-07
3.02995e-06
-8.05748e-07
3.22879e-06
-6.73383e-07
3.38759e-06
-5.14336e-07
3.47489e-06
-3.68448e-07
-2.01833e-07
3.53002e-06
-1.51365e-06
1.08769e-05
1.90366e-07
-1.46583e-06
1.3451e-06
-2.23241e-06
2.12657e-06
-1.9991e-06
2.73905e-06
-1.74796e-06
3.19747e-06
-1.54008e-06
3.58818e-06
-1.32116e-06
3.86538e-06
-1.11625e-06
4.10217e-06
-8.91186e-07
4.24337e-06
-6.83766e-07
4.35928e-06
-4.5997e-07
-2.55449e-07
4.39128e-06
-1.85846e-06
1.25982e-05
4.16834e-07
-3.83032e-06
1.86409e-06
-3.71514e-06
2.81816e-06
-2.98436e-06
3.50588e-06
-2.47705e-06
4.03759e-06
-2.08763e-06
4.43691e-06
-1.75094e-06
4.7474e-06
-1.43218e-06
4.96747e-06
-1.13229e-06
5.12952e-06
-8.41838e-07
5.22381e-06
-5.66051e-07
-2.94359e-07
5.27369e-06
-2.06466e-06
1.42637e-05
7.5968e-07
-6.70737e-06
2.49778e-06
-5.52037e-06
3.62225e-06
-4.14164e-06
4.40142e-06
-3.28367e-06
4.96549e-06
-2.67753e-06
5.37871e-06
-2.18362e-06
5.68031e-06
-1.74927e-06
5.89489e-06
-1.35667e-06
6.04253e-06
-9.95012e-07
6.1336e-06
-6.56938e-07
-3.34248e-07
6.17543e-06
-1.78483e-06
1.60348e-05
1.27933e-06
-9.83938e-06
3.34445e-06
-7.58538e-06
4.61159e-06
-5.44052e-06
5.44327e-06
-4.14129e-06
6.00909e-06
-3.26736e-06
6.40223e-06
-2.5957e-06
6.67569e-06
-2.03813e-06
6.86467e-06
-1.55555e-06
6.99115e-06
-1.12606e-06
7.06817e-06
-7.3434e-07
-3.66066e-07
7.10412e-06
-7.79482e-07
1.66826e-05
2.37172e-06
-1.29791e-05
4.54074e-06
-9.8092e-06
5.85616e-06
-6.76688e-06
6.65761e-06
-4.96141e-06
7.16615e-06
-3.79305e-06
7.49734e-06
-2.94202e-06
7.71684e-06
-2.2695e-06
7.86322e-06
-1.70863e-06
7.95864e-06
-1.22394e-06
8.0162e-06
-7.89833e-07
-3.87544e-07
8.04387e-06
2.67269e-06
1.41411e-05
4.7329e-06
-1.50538e-05
6.42006e-06
-1.14596e-05
7.45413e-06
-7.8169e-06
8.05963e-06
-5.58336e-06
8.42064e-06
-4.16903e-06
8.64204e-06
-3.17908e-06
8.78262e-06
-2.42159e-06
8.87221e-06
-1.80707e-06
8.92954e-06
-1.28419e-06
8.96348e-06
-8.23303e-07
-3.99615e-07
8.98093e-06
1.07314e-05
3.4076e-06
9.40136e-06
-1.36748e-05
9.23448e-06
-1.13216e-05
9.43569e-06
-8.01554e-06
9.61308e-06
-5.76313e-06
9.72937e-06
-4.29351e-06
9.80262e-06
-3.2598e-06
9.84695e-06
-2.47324e-06
9.87388e-06
-1.83769e-06
9.88923e-06
-1.3004e-06
9.8987e-06
-8.27968e-07
9.90468e-06
-3.98488e-07
-6.57242e-06
-4.45201e-08
-6.61668e-06
-7.67547e-08
-6.36689e-06
-1.11064e-07
-6.30715e-06
-1.68532e-07
-5.94999e-06
-2.41446e-07
-5.68381e-06
-3.58582e-07
-5.11876e-06
-4.91068e-07
-4.55095e-06
-5.88883e-07
-4.09808e-06
-3.9981e-07
-3.52552e-06
-5.33987e-07
-1.58539e-06
-1.87178e-06
-1.56307e-06
-3.16652e-06
-5.7063e-08
-3.21047e-06
-3.96224e-08
-3.28152e-06
-2.64986e-08
-3.42775e-06
-2.73931e-08
-3.61571e-06
-4.37721e-08
-3.89779e-06
-8.18007e-08
-4.24192e-06
-1.42168e-07
-4.58491e-06
-2.45205e-07
-4.52362e-06
-4.5319e-07
-3.97135e-06
-1.07032e-06
-2.98392e-06
-2.82045e-06
-4.54082e-06
8.18691e-07
-5.74193e-08
7.74714e-07
3.59813e-09
6.93969e-07
6.02952e-08
5.60119e-07
1.06421e-07
3.82117e-07
1.39875e-07
1.46931e-07
1.53644e-07
-1.31413e-07
1.39335e-07
-4.44313e-07
6.87891e-08
-7.60337e-07
-1.32144e-07
-1.132e-06
-6.82555e-07
-1.71917e-06
-2.22562e-06
-6.25776e-06
2.5065e-06
-5.27384e-08
2.45914e-06
5.11708e-08
2.36957e-06
1.56725e-07
2.22923e-06
2.49756e-07
2.04105e-06
3.3535e-07
1.79863e-06
3.9964e-07
1.50678e-06
4.40013e-07
1.1553e-06
4.25852e-07
7.3137e-07
3.032e-07
1.65859e-07
-1.13878e-07
-4.29971e-07
-1.62584e-06
-6.60168e-06
3.51901e-06
-5.23423e-08
3.47602e-06
1.12315e-07
3.36943e-06
2.60396e-07
3.2216e-06
4.16556e-07
3.0053e-06
5.55755e-07
2.7347e-06
6.92396e-07
2.38043e-06
8.0162e-07
1.93819e-06
8.84712e-07
1.34949e-06
9.03558e-07
4.83067e-07
7.63084e-07
-7.54063e-07
-2.3053e-07
-7.29394e-06
4.40126e-06
-3.59951e-08
4.33576e-06
1.68336e-07
4.23977e-06
3.86261e-07
4.06792e-06
5.95052e-07
3.84505e-06
8.14018e-07
3.53096e-06
1.02423e-06
3.1286e-06
1.23711e-06
2.59213e-06
1.44294e-06
1.86016e-06
1.66846e-06
7.78534e-07
1.95235e-06
-1.05962e-06
1.65783e-06
-7.96724e-06
5.26602e-06
-3.01476e-08
5.21594e-06
2.38282e-07
5.10825e-06
5.08586e-07
4.9459e-06
7.91432e-07
4.70806e-06
1.08301e-06
4.38478e-06
1.39174e-06
3.94233e-06
1.7144e-06
3.35612e-06
2.0793e-06
2.55309e-06
2.53346e-06
1.31602e-06
3.19349e-06
-4.26613e-07
3.86186e-06
-8.33864e-06
6.1726e-06
-1.77833e-08
6.12357e-06
2.99549e-07
6.02879e-06
6.29444e-07
5.8731e-06
9.74635e-07
5.64937e-06
1.34816e-06
5.32662e-06
1.75059e-06
4.88599e-06
2.20216e-06
4.27384e-06
2.72749e-06
3.40995e-06
3.42641e-06
2.19709e-06
4.56653e-06
3.40033e-07
5.67344e-06
-7.54689e-06
7.10207e-06
-7.98884e-09
7.06425e-06
3.53741e-07
6.98353e-06
7.31473e-07
6.85291e-06
1.13576e-06
6.65341e-06
1.57993e-06
6.36391e-06
2.07671e-06
5.94753e-06
2.65202e-06
5.35729e-06
3.35456e-06
4.52065e-06
4.30896e-06
3.23439e-06
5.789e-06
1.67788e-06
7.61443e-06
-6.06833e-06
8.04451e-06
6.8062e-10
8.01979e-06
3.9532e-07
7.96097e-06
8.09091e-07
7.86342e-06
1.26006e-06
7.70653e-06
1.76031e-06
7.47376e-06
2.33833e-06
7.1239e-06
3.02441e-06
6.60559e-06
3.89104e-06
5.81905e-06
5.09238e-06
4.68771e-06
7.03002e-06
3.0709e-06
8.99396e-06
-2.94802e-06
8.98564e-06
5.85583e-09
8.97476e-06
4.20342e-07
8.94361e-06
8.58632e-07
8.88386e-06
1.33872e-06
8.78557e-06
1.87836e-06
8.63062e-06
2.51001e-06
8.3907e-06
3.27775e-06
8.01895e-06
4.27406e-06
7.45559e-06
5.66937e-06
6.59432e-06
7.78268e-06
5.27282e-06
1.03659e-05
2.1551e-06
9.91404e-06
8.36039e-09
9.91809e-06
4.2775e-07
9.9149e-06
8.77097e-07
9.89638e-06
1.36771e-06
9.86203e-06
1.92416e-06
9.80164e-06
2.5741e-06
9.70976e-06
3.37337e-06
9.56284e-06
4.41242e-06
9.32363e-06
5.87887e-06
8.995e-06
8.10574e-06
8.17109e-06
1.10295e-05
1.02356e-05
1.7179e-05
-2.57516e-06
1.42323e-05
-1.07105e-05
1.23239e-05
-9.36601e-06
1.14974e-05
-7.18726e-06
1.11632e-05
-5.43039e-06
1.10126e-05
-4.14942e-06
1.09338e-05
-3.18831e-06
1.08846e-05
-2.43266e-06
1.08511e-05
-1.80979e-06
1.08272e-05
-1.27889e-06
1.08115e-05
-8.11137e-07
-3.88364e-07
1.08058e-05
1.96344e-05
-2.25392e-06
1.63473e-05
-7.38169e-06
1.42242e-05
-7.25098e-06
1.30935e-05
-6.03768e-06
1.25061e-05
-4.83516e-06
1.21873e-05
-3.82567e-06
1.19979e-05
-2.99933e-06
1.18764e-05
-2.31165e-06
1.17929e-05
-1.72685e-06
1.1735e-05
-1.21877e-06
1.16959e-05
-7.67813e-07
-3.58869e-07
1.16782e-05
1.92734e-05
-1.5882e-06
1.70325e-05
-5.1244e-06
1.53351e-05
-5.51068e-06
1.4265e-05
-4.95526e-06
1.36237e-05
-4.18562e-06
1.32326e-05
-3.43065e-06
1.29823e-05
-2.74988e-06
1.28136e-05
-2.14522e-06
1.26942e-05
-1.61029e-06
1.26089e-05
-1.13387e-06
1.25492e-05
-7.07218e-07
-3.2448e-07
1.25123e-05
1.87684e-05
-1.13647e-06
1.73195e-05
-3.64742e-06
1.60522e-05
-4.24062e-06
1.51569e-05
-4.0396e-06
1.45579e-05
-3.56929e-06
1.41589e-05
-3.02059e-06
1.38875e-05
-2.4701e-06
1.36947e-05
-1.94801e-06
1.35531e-05
-1.46387e-06
1.34456e-05
-1.02393e-06
1.33614e-05
-6.21852e-07
1.33033e-05
-2.50049e-07
1.08202e-05
3.92703e-09
1.08408e-05
4.19271e-07
1.08624e-05
8.6641e-07
1.08843e-05
1.35443e-06
1.09088e-05
1.9038e-06
1.0944e-05
2.5392e-06
1.10069e-05
3.30449e-06
1.11381e-05
4.2693e-06
1.14314e-05
5.56239e-06
1.20803e-05
7.37667e-06
1.34029e-05
9.6494e-06
1.16935e-05
1.17005e-05
-9.15284e-09
1.17366e-05
3.93304e-07
1.17801e-05
8.2772e-07
1.18353e-05
1.30165e-06
1.19072e-05
1.82654e-06
1.20145e-05
2.42356e-06
1.2187e-05
3.1155e-06
1.24914e-05
3.94231e-06
1.30568e-05
4.95615e-06
1.41711e-05
6.2177e-06
1.6211e-05
7.5353e-06
7.72119e-06
1.25512e-05
-3.49451e-08
1.26031e-05
3.52434e-07
1.26663e-05
7.70118e-07
1.27462e-05
1.22181e-06
1.28524e-05
1.71527e-06
1.3004e-05
2.26104e-06
1.32357e-05
2.8677e-06
1.36094e-05
3.54554e-06
1.42394e-05
4.29303e-06
1.53309e-05
5.0712e-06
1.71816e-05
5.6451e-06
4.90301e-06
1.33691e-05
-9.33119e-08
1.34417e-05
2.85347e-07
1.35239e-05
6.89176e-07
1.36228e-05
1.11618e-06
1.37513e-05
1.5758e-06
1.39272e-05
2.06725e-06
1.41831e-05
2.59041e-06
1.45668e-05
3.13346e-06
1.51584e-05
3.66645e-06
1.60847e-05
4.1051e-06
1.74937e-05
4.19976e-06
3.16199e-06
2.98708e-06
-8.00958e-07
2.00966e-06
-2.65582e-06
1.09203e-06
-3.29031e-06
3.83502e-07
-3.31501e-06
-1.2771e-07
-3.04425e-06
-4.91668e-07
-2.64714e-06
-7.53777e-07
-2.2021e-06
-9.49254e-07
-1.75012e-06
-1.10206e-06
-1.31028e-06
-1.22818e-06
-8.97482e-07
-1.34097e-06
-5.07139e-07
-1.73307e-07
-1.44406e-06
2.31373e-06
-5.7068e-07
1.65673e-06
-1.98071e-06
9.80071e-07
-2.60846e-06
4.21003e-07
-2.73433e-06
-1.27376e-08
-2.59256e-06
-3.39282e-07
-2.30446e-06
-5.86584e-07
-1.94308e-06
-7.79248e-07
-1.54776e-06
-9.39992e-07
-1.14184e-06
-1.08984e-06
-7.42604e-07
-1.26862e-06
-3.46277e-07
2.77919e-08
-1.4345e-06
1.83352e-06
-4.19421e-07
1.38047e-06
-1.51705e-06
8.80225e-07
-2.08363e-06
4.33553e-07
-2.2722e-06
6.79741e-08
-2.21248e-06
-2.20687e-07
-2.00332e-06
-4.47699e-07
-1.70718e-06
-6.31016e-07
-1.35791e-06
-7.92584e-07
-9.76752e-07
-9.67135e-07
-5.71252e-07
-1.22286e-06
-7.86492e-08
2.5898e-07
-1.50364e-06
1.48284e-06
-3.19478e-07
1.16497e-06
-1.18787e-06
7.84995e-07
-1.69728e-06
4.28545e-07
-1.89826e-06
1.22027e-07
-1.88809e-06
-1.29705e-07
-1.73619e-06
-3.32606e-07
-1.49018e-06
-4.99112e-07
-1.18037e-06
-6.46035e-07
-8.20271e-07
-8.05679e-07
-4.02255e-07
-1.09985e-06
1.91241e-07
-1.3094e-06
5.26428e-07
-1.31691e-06
-1.93685e-07
-1.20793e-06
1.88399e-07
-1.10469e-06
5.88061e-07
-9.88546e-07
9.9565e-07
-8.44505e-07
1.42183e-06
-6.53032e-07
1.86124e-06
-3.87435e-07
2.30551e-06
-1.11127e-08
2.73362e-06
5.24865e-07
3.10157e-06
1.28055e-06
3.31521e-06
2.28692e-06
3.16811e-06
2.13739e-06
-1.22937e-06
-3.98948e-07
-1.06156e-06
2.95375e-08
-9.3516e-07
4.59654e-07
-8.09061e-07
8.6103e-07
-6.6133e-07
1.25947e-06
-4.71373e-07
1.65339e-06
-2.17738e-07
2.03009e-06
1.25153e-07
2.36675e-06
5.83917e-07
2.61567e-06
1.18091e-06
2.69157e-06
1.89886e-06
2.43207e-06
1.50505e-06
-1.17617e-06
-6.72194e-07
-9.29633e-07
-2.02657e-07
-7.85298e-07
3.16714e-07
-6.57977e-07
7.28085e-07
-5.14786e-07
1.10566e-06
-3.35659e-07
1.45959e-06
-1.03038e-07
1.78008e-06
1.99079e-07
2.04439e-06
5.83619e-07
2.20927e-06
1.05197e-06
2.20162e-06
1.56828e-06
1.90014e-06
1.10593e-06
-1.03155e-06
-9.55222e-07
-7.66666e-07
-4.61841e-07
-6.38392e-07
1.85666e-07
-5.24736e-07
6.04679e-07
-3.94083e-07
9.61784e-07
-2.30955e-07
1.28023e-06
-2.29781e-08
1.55461e-06
2.38892e-07
1.76419e-06
5.58429e-07
1.87129e-06
9.26678e-07
1.81684e-06
1.3047e-06
1.51374e-06
8.41379e-07
1.22114e-06
-2.51974e-07
9.90998e-07
-9.49117e-07
7.01328e-07
-1.39001e-06
4.13946e-07
-1.59734e-06
1.5727e-07
-1.61801e-06
-5.95222e-08
-1.5073e-06
-2.37042e-07
-1.30239e-06
-3.8025e-07
-1.02958e-06
-4.93595e-07
-7.01189e-07
-5.76268e-07
-3.20952e-07
-6.05141e-07
2.40265e-07
-1.34457e-07
1.02201e-06
-2.04437e-07
8.52244e-07
-7.72018e-07
6.26157e-07
-1.15771e-06
3.94451e-07
-1.35036e-06
1.79748e-07
-1.38874e-06
-5.53691e-09
-1.30727e-06
-1.58744e-07
-1.1366e-06
-2.78974e-07
-8.97448e-07
-3.64455e-07
-6.0601e-07
-3.96111e-07
-2.7731e-07
-2.7092e-07
1.04199e-07
-3.1283e-07
8.67825e-07
-1.69744e-07
7.39133e-07
-6.36937e-07
5.62372e-07
-9.66934e-07
3.73263e-07
-1.1506e-06
1.93808e-07
-1.19785e-06
3.5761e-08
-1.1392e-06
-9.52569e-08
-9.95713e-07
-1.96249e-07
-7.89409e-07
-2.62413e-07
-5.33664e-07
-2.81976e-07
-2.55925e-07
-1.84237e-07
3.16826e-08
-5.34404e-07
7.46947e-07
-1.4308e-07
6.48121e-07
-5.32128e-07
5.06595e-07
-8.20322e-07
3.52319e-07
-9.84006e-07
2.01911e-07
-1.03578e-06
6.74701e-08
-9.93084e-07
-4.47051e-08
-8.72988e-07
-1.29693e-07
-6.94518e-07
-1.82606e-07
-4.71965e-07
-1.93012e-07
-2.34547e-07
-1.28239e-07
-3.5102e-08
-5.65956e-07
6.51687e-07
-1.21905e-07
5.73887e-07
-4.49233e-07
4.60633e-07
-6.95898e-07
3.32672e-07
-8.48699e-07
2.06618e-07
-8.99672e-07
9.16279e-08
-8.71369e-07
-4.26981e-09
-7.68044e-07
-7.67134e-08
-6.17075e-07
-1.19718e-07
-4.22705e-07
-1.2747e-07
-2.25344e-07
-7.11775e-08
-6.96364e-08
-6.58695e-07
5.78901e-07
-1.04044e-07
5.17113e-07
-3.81588e-07
4.23558e-07
-5.98713e-07
3.16845e-07
-7.31242e-07
2.09935e-07
-7.84684e-07
1.11112e-07
-7.63338e-07
2.7731e-08
-6.77295e-07
-3.45429e-08
-5.47006e-07
-7.14697e-08
-3.78981e-07
-7.62885e-08
-2.12253e-07
-3.97109e-08
-1.04843e-07
-6.12145e-07
5.32247e-07
-8.85038e-08
4.8108e-07
-3.2491e-07
4.02654e-07
-5.10631e-07
3.08685e-07
-6.32469e-07
2.17245e-07
-6.82398e-07
1.28594e-07
-6.68067e-07
5.49408e-08
-5.95157e-07
-1.17895e-09
-4.84064e-07
-3.42086e-08
-3.40497e-07
-3.97797e-08
-2.01984e-07
-8.01985e-09
-1.19492e-07
-6.23192e-07
5.25162e-07
-7.30592e-08
4.80225e-07
-2.73332e-07
4.08303e-07
-4.34191e-07
3.20009e-07
-5.32409e-07
2.36687e-07
-5.89908e-07
1.51235e-07
-5.73739e-07
8.1807e-08
-5.16551e-07
2.68891e-08
-4.22157e-07
-5.19342e-09
-2.99616e-07
-1.15143e-08
-1.8935e-07
9.61986e-09
-1.34147e-07
-5.67295e-07
5.86447e-07
-5.72927e-08
5.41114e-07
-2.2186e-07
4.67251e-07
-3.51528e-07
3.69737e-07
-4.46569e-07
2.8629e-07
-4.78924e-07
1.9179e-07
-4.74968e-07
1.17471e-07
-4.28868e-07
5.7272e-08
-3.47296e-07
1.98518e-08
-2.61164e-07
1.23076e-08
-1.62932e-07
2.69866e-08
-1.49353e-07
-5.12009e-07
7.6657e-07
-3.66824e-08
7.12166e-07
-1.57146e-07
6.17456e-07
-2.6319e-07
4.99299e-07
-3.25895e-07
3.92897e-07
-3.37928e-07
2.75029e-07
-3.32773e-07
1.79844e-07
-3.01909e-07
1.01373e-07
-2.43357e-07
5.36698e-08
-1.8888e-07
3.8136e-08
-1.23848e-07
5.00714e-08
-1.43861e-07
-4.16409e-07
1.08505e-06
6.18549e-09
1.0082e-06
-5.98608e-08
8.75793e-07
-1.36931e-07
7.19128e-07
-1.49965e-07
5.73881e-07
-9.23258e-08
4.1896e-07
-8.72489e-08
2.88967e-07
-6.88396e-08
1.8504e-07
-4.52379e-08
1.19173e-07
-3.96884e-08
9.39953e-08
-1.70004e-08
9.23289e-08
-8.61483e-08
-2.29141e-07
8.57928e-07
7.96731e-07
6.62651e-07
5.35759e-07
4.63816e-07
4.00207e-07
3.53108e-07
3.26797e-07
3.06088e-07
3.00395e-07
2.29141e-07
-5.32361e-07
-3.20947e-07
-5.38512e-07
-4.45701e-07
-4.89473e-07
1.36704e-07
-4.05525e-07
5.15506e-07
-2.93294e-07
8.39513e-07
-1.4854e-07
1.12292e-06
3.44541e-08
1.3568e-06
2.59364e-07
1.52365e-06
5.24268e-07
1.59039e-06
8.15703e-07
1.5112e-06
1.09618e-06
1.22335e-06
6.63251e-07
-2.13486e-07
-1.41518e-07
-3.72002e-07
-2.87556e-07
-3.65134e-07
1.24581e-07
-3.04712e-07
4.45926e-07
-2.10092e-07
7.3352e-07
-8.36614e-08
9.83446e-07
7.59859e-08
1.18429e-06
2.68217e-07
1.31862e-06
4.88073e-07
1.35889e-06
7.20178e-07
1.26936e-06
9.32632e-07
1.00723e-06
5.36088e-07
-1.58685e-07
1.00004e-07
-2.68101e-07
-1.72403e-07
-2.6889e-07
1.247e-07
-2.22327e-07
3.95462e-07
-1.42336e-07
6.4456e-07
-3.21886e-08
8.63587e-07
1.06302e-07
1.03352e-06
2.70489e-07
1.14315e-06
4.53299e-07
1.16434e-06
6.39732e-07
1.07362e-06
8.02387e-07
8.38217e-07
4.4542e-07
-1.13604e-07
1.57561e-07
-1.91513e-07
-1.00143e-07
-1.93818e-07
1.21256e-07
-1.56579e-07
3.49468e-07
-8.76291e-08
5.67044e-07
8.03239e-09
7.5806e-07
1.28563e-07
9.04593e-07
2.68669e-07
9.94817e-07
4.21535e-07
1.0049e-06
5.72241e-07
9.1769e-07
6.99227e-07
7.10196e-07
3.76093e-07
-7.35415e-08
2.77112e-07
-1.33439e-07
-3.76344e-08
-1.35353e-07
1.22007e-07
-1.03703e-07
3.15401e-07
-4.37702e-08
4.99116e-07
4.02401e-08
6.67839e-07
1.45053e-07
7.8963e-07
2.65442e-07
8.67746e-07
3.93675e-07
8.67963e-07
5.16826e-07
7.89462e-07
6.16513e-07
6.0568e-07
3.24942e-07
-4.68629e-08
2.44918e-07
-9.08291e-08
-2.27751e-09
-8.99066e-08
1.13868e-07
-6.25092e-08
2.81652e-07
-8.17864e-09
4.38103e-07
6.56875e-08
5.88078e-07
1.58769e-07
6.91531e-07
2.62735e-07
7.59614e-07
3.72106e-07
7.55518e-07
4.73665e-07
6.85655e-07
5.53972e-07
5.25668e-07
2.8274e-07
-2.60228e-08
2.88977e-07
-6.05719e-08
2.8802e-08
-5.46825e-08
1.10849e-07
-3.02539e-08
2.5019e-07
2.13782e-08
3.8441e-07
8.82207e-08
5.13252e-07
1.73297e-07
6.02518e-07
2.66067e-07
6.60723e-07
3.61815e-07
6.56137e-07
4.48588e-07
5.95547e-07
5.14531e-07
4.55738e-07
2.5045e-07
-1.46221e-08
2.27171e-07
-3.95602e-08
4.75223e-08
-2.88707e-08
9.07569e-08
-4.38081e-09
2.23629e-07
4.76973e-08
3.24413e-07
1.13263e-07
4.46291e-07
1.95978e-07
5.14416e-07
2.85391e-07
5.70638e-07
3.74951e-07
5.63854e-07
4.54648e-07
5.15102e-07
5.1344e-07
3.954e-07
2.21756e-07
-1.49567e-09
2.69108e-07
-2.85814e-08
4.46326e-08
-4.99284e-09
1.01781e-07
1.62245e-08
1.622e-07
8.1293e-08
2.85247e-07
1.49002e-07
3.46035e-07
2.44075e-07
4.34516e-07
3.39056e-07
4.55551e-07
4.36856e-07
4.73415e-07
5.19346e-07
4.22162e-07
5.80162e-07
3.34698e-07
1.92683e-07
-2.94054e-09
1.89646e-07
-1.48631e-08
3.96417e-08
1.24043e-08
7.42608e-08
4.82093e-08
1.04842e-07
1.26754e-07
2.00833e-07
2.19742e-07
2.35502e-07
3.38642e-07
3.09417e-07
4.64033e-07
3.1975e-07
5.87522e-07
3.46501e-07
6.92767e-07
3.10801e-07
7.67998e-07
2.53116e-07
1.61666e-07
3.09757e-09
2.74912e-08
-4.07989e-10
-1.75022e-08
3.69878e-08
2.63334e-08
8.61022e-08
-1.05011e-08
1.92509e-07
7.1852e-08
3.19333e-07
5.36399e-08
4.84935e-07
1.22944e-07
6.58889e-07
1.12927e-07
8.35614e-07
1.58098e-07
9.84239e-07
1.40154e-07
1.09414e-06
1.29374e-07
1.13402e-07
4.30804e-09
-1.43734e-08
-4.20231e-09
-1.9093e-08
3.95239e-08
8.87288e-08
2.03773e-07
3.14192e-07
4.67275e-07
6.03879e-07
7.35164e-07
)
;

boundaryField
{
    rotor
    {
        type            calculated;
        value           uniform 0;
    }
    stator
    {
        type            calculated;
        value           uniform 0;
    }
    front
    {
        type            empty;
        value           nonuniform 0();
    }
    back
    {
        type            empty;
        value           nonuniform 0();
    }
    procBoundary3to1
    {
        type            processor;
        value           nonuniform List<scalar> 
20
(
1.19451e-05
2.01859e-05
2.00011e-05
1.92338e-05
3.31523e-06
2.53095e-06
1.97103e-06
1.56939e-06
1.27758e-06
1.06019e-06
8.95643e-07
7.6824e-07
6.69502e-07
5.94431e-07
5.47336e-07
5.41446e-07
6.07868e-07
8.03751e-07
1.15104e-06
8.5113e-07
)
;
    }
    procBoundary3to2
    {
        type            processor;
        value           nonuniform List<scalar> 
20
(
-1.11409e-05
-1.99479e-05
-1.9916e-05
-1.92048e-05
-3.30671e-06
-2.531e-06
-1.97396e-06
-1.57286e-06
-1.28026e-06
-1.06167e-06
-8.95809e-07
-7.67042e-07
-6.66958e-07
-5.90793e-07
-5.42276e-07
-5.34341e-07
-5.96214e-07
-7.79185e-07
-1.10059e-06
-8.37494e-07
)
;
    }
}


// ************************************************************************* //
