/*--------------------------------*- C++ -*----------------------------------*\
  =========                 |
  \\      /  F ield         | OpenFOAM: The Open Source CFD Toolbox
   \\    /   O peration     | Website:  https://openfoam.org
    \\  /    A nd           | Version:  6
     \\/     M anipulation  |
\*---------------------------------------------------------------------------*/
FoamFile
{
    version     2.0;
    format      ascii;
    class       volScalarField;
    location    "1000";
    object      p;
}
// * * * * * * * * * * * * * * * * * * * * * * * * * * * * * * * * * * * * * //

dimensions      [0 2 -2 0 0 0 0];

internalField   nonuniform List<scalar> 
768
(
0.385826
0.887566
1.56631
2.27323
3.004
3.73573
4.4638
5.17917
5.88662
6.58212
7.27273
7.9559
0.250683
0.827116
1.51792
2.24139
2.9963
3.7488
4.48657
5.2054
5.9098
6.60054
7.28321
7.95894
0.115491
0.738429
1.44319
2.17998
2.96482
3.74925
4.50822
5.23765
5.94281
6.62876
7.30183
7.9665
0.0549468
0.720149
1.44492
2.20117
3.00803
3.80954
4.57715
5.30666
6.00456
6.6778
7.33436
7.98049
0.0830544
0.792577
1.54108
2.32073
3.14045
3.9442
4.70339
5.41884
6.09712
6.74773
7.37899
7.99888
0.200631
0.955198
1.72821
2.52501
3.34857
4.13815
4.87638
5.56471
6.21378
6.83311
7.43247
8.01966
0.414983
1.21403
2.00621
2.81183
3.62187
4.38447
5.08735
5.73846
6.34926
6.93074
7.49239
8.0426
0.727878
1.57115
2.37612
3.1765
3.95652
4.67505
5.33013
5.93377
6.49907
7.03712
7.55707
8.06665
1.15678
2.04066
2.8445
3.61584
4.34307
5.0004
5.59529
6.14312
6.65727
7.14817
7.62391
8.09106
1.73662
2.64767
3.41552
4.12352
4.77036
5.3485
5.87249
6.35826
6.8178
7.25975
7.69051
8.11504
2.53587
3.42898
4.09402
4.6868
5.22236
5.70537
6.15086
6.57129
6.97518
7.36831
7.75487
8.13795
3.76718
4.42527
4.86765
5.28155
5.67762
6.05541
6.41972
6.7751
7.1247
7.47088
7.81532
8.1593
8.63945
9.32148
10.0099
10.7027
11.4074
12.121
12.8492
13.5863
14.3259
15.0432
15.7227
16.2245
8.63347
9.30814
9.98874
10.6765
11.3776
12.0933
12.8299
13.5879
14.3578
15.0969
15.7913
16.3673
8.62852
9.29196
9.96252
10.6443
11.3443
12.0676
12.8229
13.6136
14.4208
15.1794
15.8905
16.5132
8.62316
9.26804
9.92177
10.5904
11.2816
12.0035
12.7652
13.5719
14.4031
15.1839
15.9178
16.5827
8.61461
9.23334
9.86171
10.5076
11.1785
11.8853
12.6359
13.442
14.2832
15.0889
15.8486
16.5575
8.60311
9.18893
9.78601
10.3996
11.042
11.7188
12.4482
13.2343
14.0748
14.8974
15.6767
16.431
8.58864
9.13783
9.69662
10.2733
10.8756
11.516
12.2058
12.9614
13.7806
14.6051
15.4033
16.1969
8.57255
9.08109
9.59837
10.1314
10.6884
11.2801
11.9205
12.6257
13.4044
14.2171
15.0147
15.8476
8.5552
9.02135
9.4945
9.98045
10.4863
11.022
11.6005
12.2396
12.9549
13.7216
14.5056
15.364
8.53739
8.96093
9.38927
9.8265
10.2783
10.7523
11.2597
11.8166
12.4417
13.1308
13.8498
14.7076
8.51979
8.90198
9.28631
9.6752
10.0722
10.4822
10.9126
11.3748
11.8844
12.4442
13.0347
13.7939
8.50303
8.8462
9.18872
9.53132
9.87523
10.2223
10.5748
10.936
11.3099
11.6919
12.0469
12.5021
6.23341
5.63342
5.67036
5.85884
6.10775
6.38249
6.66973
6.96404
7.26294
7.56536
7.87081
8.17869
7.38991
6.54214
6.33038
6.35414
6.48594
6.67403
6.89423
7.13425
7.38751
7.65029
7.92035
8.19585
7.84789
7.12076
6.82371
6.75256
6.80343
6.9251
7.09043
7.28417
7.4975
7.72507
7.96363
8.21059
8.05702
7.48195
7.18051
7.06399
7.06331
7.1366
7.25858
7.41385
7.59279
7.78951
8.00006
8.22239
8.48761
8.79483
9.09865
9.39822
9.69278
9.9812
10.2607
10.5257
10.7624
10.9341
10.9223
10.2956
8.47396
8.74885
9.01759
9.27818
9.52845
9.7649
9.98127
10.1658
10.2954
10.3222
10.1283
9.41472
8.46253
8.70885
8.94615
9.17206
9.38351
9.57562
9.74026
9.86322
9.91964
9.8647
9.61326
8.9951
8.45411
8.6755
8.88481
9.08019
9.25812
9.41322
9.5368
9.61473
9.62439
9.5298
9.27336
8.76919
8.16616
7.71452
7.43822
7.3051
7.27376
7.31299
7.40148
7.52516
7.67477
7.84438
8.03028
8.23097
8.22807
7.86936
7.62617
7.49196
7.44361
7.45921
7.52195
7.61971
7.7442
7.89
8.05337
8.23346
8.26745
7.97704
7.76555
7.63728
7.58019
7.57954
7.62246
7.69893
7.80174
7.92607
8.06724
8.22582
8.29423
8.05455
7.87073
7.75104
7.69011
7.67826
7.7058
7.76461
7.84833
7.95228
8.06837
8.19526
8.45002
8.64934
8.83376
9.00235
9.15159
9.27614
9.36764
9.41331
9.39416
9.28321
9.04438
8.63838
8.45277
8.63127
8.79298
8.93791
9.06253
9.16187
9.22842
9.25112
9.21477
9.09998
8.88504
8.55575
8.46544
8.62207
8.7614
8.88491
8.98819
9.06668
9.11378
9.12022
9.07416
8.96205
8.77173
8.50145
8.49891
8.62513
8.7393
8.84234
8.92671
8.98773
9.01953
9.01444
8.96333
8.85698
8.68932
8.46394
8.31335
8.11188
7.95125
7.84083
7.77891
7.7593
7.77485
7.81888
7.88567
7.96963
8.05785
8.12593
8.32747
8.15533
8.01392
7.91229
7.85091
7.8259
7.83198
7.86364
7.91557
7.98151
8.04708
8.0899
8.33818
8.18883
8.0632
7.96965
7.9096
7.88083
7.87939
7.90078
7.94
7.99078
8.03977
8.06846
8.34646
8.21513
8.10254
8.01604
7.95763
7.92621
7.91875
7.93162
7.96014
7.99842
8.03497
8.05482
8.35293
8.23599
8.13415
8.05389
7.99719
7.96391
7.9516
7.95746
7.97704
8.00516
8.03197
8.0461
8.35806
8.2528
8.15998
8.08503
8.02987
7.99527
7.97902
7.97907
7.99129
8.01108
8.0303
8.04028
8.36213
8.26642
8.18115
8.11099
8.05694
8.02161
8.0019
7.99737
8.00333
8.01649
8.02956
8.03664
8.36535
8.27754
8.19876
8.13242
8.07944
8.04348
8.02103
8.0127
8.01356
8.02132
8.02954
8.03432
8.36777
8.28619
8.21249
8.15001
8.09678
8.06122
8.03585
8.02514
8.02158
8.0255
8.0299
8.03301
8.36932
8.29191
8.22204
8.1608
8.1091
8.07227
8.04628
8.03292
8.02723
8.02815
8.03047
8.03226
8.3701
8.2951
8.22678
8.16637
8.11552
8.07808
8.05172
8.03695
8.03011
8.0294
8.03069
8.03187
8.37036
8.29623
8.22821
8.16804
8.11778
8.08005
8.05371
8.03838
8.03119
8.02983
8.03078
8.03182
8.57023
8.63845
8.72527
8.8084
8.87594
8.92229
8.94201
8.92867
8.87534
8.77587
8.62774
8.43718
8.60816
8.65147
8.71605
8.78138
8.83414
8.86811
8.87817
8.8589
8.80503
8.71251
8.58108
8.41716
8.63134
8.66041
8.70886
8.7593
8.7995
8.82312
8.8255
8.8019
8.74841
8.6624
8.54471
8.40207
8.64655
8.66676
8.70298
8.74117
8.77074
8.78577
8.78191
8.75518
8.70258
8.62238
8.51629
8.39011
8.65661
8.67095
8.69778
8.7259
8.74676
8.75459
8.74583
8.71666
8.6652
8.59004
8.49337
8.38082
8.66353
8.67378
8.69312
8.71315
8.72665
8.72864
8.7158
8.68489
8.63459
8.56373
8.47506
8.37317
8.66808
8.67538
8.68889
8.70223
8.70986
8.70687
8.69096
8.65846
8.60946
8.542
8.45986
8.36712
8.67113
8.67621
8.68507
8.69304
8.69584
8.68879
8.67034
8.63664
8.58874
8.5241
8.44752
8.3621
8.67303
8.67641
8.68182
8.68562
8.68483
8.67439
8.65436
8.61919
8.5727
8.50965
8.43772
8.35818
8.6742
8.67637
8.67953
8.6808
8.67728
8.66513
8.64324
8.60809
8.56146
8.5006
8.43116
8.35569
8.67485
8.67636
8.67837
8.6783
8.67329
8.66021
8.6373
8.6022
8.55545
8.4959
8.42794
8.35421
8.67498
8.67633
8.67795
8.67742
8.67187
8.6585
8.6352
8.60018
8.55326
8.4944
8.42697
8.35364
)
;

boundaryField
{
    rotor
    {
        type            zeroGradient;
    }
    stator
    {
        type            zeroGradient;
    }
    front
    {
        type            empty;
    }
    back
    {
        type            empty;
    }
    procBoundary3to1
    {
        type            processor;
        value           nonuniform List<scalar> 
20
(
6.17166
7.32056
7.77323
7.97854
8.08469
8.14433
8.1818
8.20714
8.22491
8.23804
8.24773
8.25531
8.26101
8.26569
8.26935
8.27237
8.27493
8.27617
8.27683
8.27701
)
;
    }
    procBoundary3to2
    {
        type            processor;
        value           nonuniform List<scalar> 
20
(
10.3718
9.49534
9.07823
8.85486
8.72584
8.64472
8.59137
8.55483
8.52861
8.50926
8.49448
8.483
8.47384
8.46642
8.46029
8.45515
8.45106
8.4482
8.44662
8.44605
)
;
    }
}


// ************************************************************************* //
