/*--------------------------------*- C++ -*----------------------------------*\
  =========                 |
  \\      /  F ield         | OpenFOAM: The Open Source CFD Toolbox
   \\    /   O peration     | Website:  https://openfoam.org
    \\  /    A nd           | Version:  6
     \\/     M anipulation  |
\*---------------------------------------------------------------------------*/
FoamFile
{
    version     2.0;
    format      ascii;
    class       surfaceScalarField;
    location    "1000";
    object      phi;
}
// * * * * * * * * * * * * * * * * * * * * * * * * * * * * * * * * * * * * * //

dimensions      [0 3 -1 0 0 0 0];

internalField   nonuniform List<scalar> 
1468
(
-4.9208e-06
4.89359e-06
-7.19598e-06
1.84349e-06
-8.26231e-06
1.16032e-06
-9.53349e-06
9.06014e-07
-1.00394e-05
6.33716e-07
-1.0745e-05
3.6929e-07
-1.0795e-05
2.10415e-07
-1.11889e-05
9.48448e-08
-1.10475e-05
4.88957e-08
-1.13101e-05
4.92086e-09
-1.10947e-05
4.18361e-10
-2.11972e-08
-1.12888e-05
-1.88361e-06
6.68436e-06
-1.85444e-06
1.73888e-06
-1.39893e-06
6.94292e-07
-9.49844e-07
4.19143e-07
-5.8537e-07
2.65428e-07
-3.84402e-07
1.35747e-07
-2.14762e-07
4.17482e-08
-1.27922e-07
-1.93761e-08
-2.60018e-08
-4.65959e-08
1.33573e-08
-5.527e-08
7.23222e-08
-4.63571e-08
-3.28459e-08
7.0308e-08
4.45773e-07
6.21653e-06
1.02925e-06
1.12827e-06
1.51168e-06
2.11816e-07
1.91376e-06
7.78847e-09
2.24934e-06
-6.92335e-08
2.49477e-06
-1.17879e-07
2.68571e-06
-1.48149e-07
2.81763e-06
-1.58978e-07
2.92239e-06
-1.49695e-07
2.98634e-06
-1.25549e-07
3.03299e-06
-8.98351e-08
-4.86362e-08
3.04484e-06
1.24346e-06
4.84502e-06
2.03676e-06
3.02478e-07
2.52918e-06
-2.83612e-07
2.90426e-06
-3.72276e-07
3.22404e-06
-3.80588e-07
3.48288e-06
-3.78179e-07
3.69604e-06
-3.53077e-07
3.85543e-06
-3.20468e-07
3.97896e-06
-2.67246e-07
4.05949e-06
-2.09476e-07
4.1126e-06
-1.38176e-07
-6.87057e-08
4.12925e-06
1.63245e-06
3.04323e-06
2.57036e-06
-6.92997e-07
3.11637e-06
-8.69857e-07
3.54131e-06
-7.88273e-07
3.87519e-06
-7.36234e-07
4.1769e-06
-6.59456e-07
4.40558e-06
-5.92086e-07
4.59927e-06
-4.96663e-07
4.73055e-06
-4.07769e-07
4.83307e-06
-2.98296e-07
4.88351e-06
-1.99333e-07
-8.42083e-08
4.91194e-06
1.89164e-06
5.45678e-07
3.00673e-06
-1.97662e-06
3.68248e-06
-1.58794e-06
4.14391e-06
-1.31405e-06
4.55504e-06
-1.13804e-06
4.86314e-06
-1.00434e-06
5.13877e-06
-8.51634e-07
5.32712e-06
-7.10308e-07
5.48918e-06
-5.5304e-07
5.57844e-06
-4.10034e-07
5.65217e-06
-2.54462e-07
-1.14097e-07
5.66118e-06
2.12242e-06
-1.81717e-06
3.48222e-06
-3.47081e-06
4.28599e-06
-2.44854e-06
4.85065e-06
-1.92211e-06
5.28827e-06
-1.62565e-06
5.64507e-06
-1.37901e-06
5.91577e-06
-1.15078e-06
6.12666e-06
-9.27821e-07
6.27329e-06
-7.18213e-07
6.37865e-06
-5.14997e-07
6.43481e-06
-3.22854e-07
-1.32622e-07
6.46017e-06
2.18122e-06
-4.47095e-06
3.99167e-06
-5.34352e-06
4.9762e-06
-3.52071e-06
5.64292e-06
-2.62746e-06
6.13168e-06
-2.14475e-06
6.49844e-06
-1.77219e-06
6.77138e-06
-1.44216e-06
6.97099e-06
-1.14219e-06
7.11152e-06
-8.68676e-07
7.20586e-06
-6.16284e-07
7.25997e-06
-3.79957e-07
-1.53205e-07
7.27987e-06
2.31697e-06
-6.71977e-06
4.5788e-06
-7.66861e-06
5.8172e-06
-4.75024e-06
6.56445e-06
-3.40253e-06
7.07441e-06
-2.67671e-06
7.4315e-06
-2.14718e-06
7.68301e-06
-1.70788e-06
7.85943e-06
-1.32953e-06
7.98055e-06
-9.97764e-07
8.05992e-06
-7.00339e-07
8.10502e-06
-4.27578e-07
-1.6923e-07
8.12144e-06
2.90329e-06
-9.64104e-06
5.52849e-06
-1.02463e-05
6.86223e-06
-6.1188e-06
7.64158e-06
-4.17993e-06
8.12173e-06
-3.16269e-06
8.43163e-06
-2.46436e-06
8.63715e-06
-1.92006e-06
8.77499e-06
-1.47349e-06
8.86727e-06
-1.09385e-06
8.92583e-06
-7.61661e-07
8.95888e-06
-4.60988e-07
-1.79716e-07
8.9706e-06
4.80885e-06
-1.42218e-05
7.06224e-06
-1.24607e-05
8.25753e-06
-7.25859e-06
8.8991e-06
-4.8158e-06
9.26224e-06
-3.5239e-06
9.47858e-06
-2.68112e-06
9.61369e-06
-2.05788e-06
9.70111e-06
-1.56363e-06
9.75754e-06
-1.15286e-06
9.7925e-06
-7.97853e-07
9.81131e-06
-4.7991e-07
-1.85241e-07
9.81789e-06
9.27122e-06
-2.34446e-05
9.78276e-06
-1.28891e-05
1.0099e-05
-7.56699e-06
1.03293e-05
-5.02201e-06
1.0463e-05
-3.64307e-06
1.05416e-05
-2.75242e-06
1.05904e-05
-2.10314e-06
1.06212e-05
-1.59308e-06
1.06399e-05
-1.17117e-06
1.065e-05
-8.07354e-07
1.06537e-05
-4.83271e-07
1.06551e-05
-1.84079e-07
-1.10372e-05
-1.7547e-08
-1.11817e-05
-3.82789e-08
-1.0902e-05
-4.17033e-08
-1.10181e-05
-7.70588e-08
-1.07035e-05
-1.09261e-07
-1.06983e-05
-1.9949e-07
-1.02412e-05
-3.3635e-07
-9.7149e-06
-5.91556e-07
-8.73e-06
-8.95105e-07
-7.43467e-06
-1.21441e-06
-5.31532e-06
-1.99666e-06
-5.27944e-06
8.40475e-08
-1.34844e-08
3.67671e-08
9.52246e-10
3.73847e-09
1.20264e-08
-9.16293e-08
8.77708e-09
-1.78083e-07
-1.02024e-08
-3.31868e-07
-5.94166e-08
-5.21558e-07
-1.44498e-07
-8.48645e-07
-2.67316e-07
-1.323e-06
-4.08742e-07
-1.80472e-06
-7.10033e-07
-1.892e-06
-1.84611e-06
-7.15851e-06
3.04168e-06
-4.6963e-09
3.00457e-06
3.67016e-08
2.95164e-06
7.34201e-08
2.85849e-06
9.94526e-08
2.74054e-06
1.13117e-07
2.56973e-06
1.06536e-07
2.34442e-06
7.91865e-08
2.03641e-06
3.75278e-08
1.6512e-06
-2.01838e-08
1.19131e-06
-2.29993e-07
5.98608e-07
-1.23452e-06
-6.55011e-06
4.12196e-06
7.96983e-09
4.08031e-06
7.72754e-08
4.01258e-06
1.48142e-07
3.90542e-06
2.06933e-07
3.76113e-06
2.61513e-07
3.56705e-06
2.96978e-07
3.32415e-06
3.25687e-07
3.0258e-06
3.31159e-07
2.68568e-06
3.34524e-07
2.22643e-06
2.34032e-07
1.4366e-06
-4.26103e-07
-4.95597e-06
4.89296e-06
1.67405e-08
4.85407e-06
1.31448e-07
4.76705e-06
2.29288e-07
4.6532e-06
3.39559e-07
4.47812e-06
4.28265e-07
4.27235e-06
5.29834e-07
3.98167e-06
5.94959e-07
3.66735e-06
6.74349e-07
3.27368e-06
7.27313e-07
2.75059e-06
7.83996e-07
1.92257e-06
6.5929e-07
-2.88669e-06
5.66129e-06
3.97167e-08
5.59839e-06
1.79092e-07
5.52755e-06
3.34522e-07
5.38196e-06
4.75447e-07
5.2222e-06
6.35996e-07
4.96165e-06
7.75117e-07
4.67594e-06
9.34125e-07
4.28352e-06
1.06242e-06
3.84012e-06
1.2234e-06
3.27766e-06
1.4947e-06
2.20031e-06
1.86507e-06
-1.44095e-07
6.44296e-06
5.21447e-08
6.39877e-06
2.41911e-07
6.30976e-06
4.32414e-07
6.186e-06
6.35355e-07
5.99845e-06
8.42653e-07
5.75726e-06
1.0676e-06
5.42016e-06
1.29236e-06
5.00915e-06
1.53816e-06
4.49879e-06
1.81285e-06
3.72939e-06
2.2739e-06
2.70959e-06
3.4855e-06
2.63436e-06
7.26756e-06
6.9835e-08
7.2241e-06
2.95457e-07
7.14754e-06
5.31145e-07
7.02779e-06
7.80239e-07
6.8573e-06
1.05172e-06
6.61306e-06
1.3455e-06
6.28501e-06
1.67205e-06
5.83866e-06
2.02659e-06
5.22402e-06
2.45475e-06
4.42352e-06
3.27294e-06
2.7557e-06
5.09365e-06
5.74835e-06
8.11137e-06
8.35702e-08
8.07725e-06
3.41265e-07
8.01309e-06
6.11736e-07
7.91424e-06
9.04772e-07
7.76417e-06
1.22882e-06
7.54894e-06
1.59513e-06
7.23658e-06
2.01581e-06
6.7915e-06
2.50859e-06
6.16178e-06
3.13428e-06
5.11236e-06
4.23607e-06
3.35035e-06
7.18291e-06
8.87549e-06
8.96457e-06
9.46213e-08
8.94115e-06
3.747e-07
8.89594e-06
6.713e-07
8.82331e-06
9.97118e-07
8.70874e-06
1.36283e-06
8.53853e-06
1.78926e-06
8.27926e-06
2.2963e-06
7.88287e-06
2.92247e-06
7.24414e-06
3.76061e-06
6.2581e-06
5.3144e-06
4.07325e-06
9.09795e-06
1.29528e-05
9.81599e-06
1.01089e-07
9.80469e-06
3.93984e-07
9.7813e-06
7.06676e-07
9.73878e-06
1.05173e-06
9.67025e-06
1.44458e-06
9.56152e-06
1.90841e-06
9.38922e-06
2.47697e-06
9.10351e-06
3.21397e-06
8.61274e-06
4.25573e-06
7.69613e-06
6.1092e-06
6.01687e-06
1.07988e-05
1.87537e-05
1.06573e-05
1.03343e-07
1.06588e-05
3.99254e-07
1.06568e-05
7.176e-07
1.06465e-05
1.06906e-06
1.06263e-05
1.47106e-06
1.05901e-05
1.94519e-06
1.05339e-05
2.53385e-06
1.04314e-05
3.30497e-06
1.0228e-05
4.4257e-06
9.89617e-06
6.42961e-06
9.20657e-06
1.12939e-05
2.78851e-05
1.70206e-05
-8.74223e-06
1.33035e-05
-9.12387e-06
1.21724e-05
-6.37713e-06
1.17928e-05
-4.61853e-06
1.1647e-05
-3.48028e-06
1.15801e-05
-2.67531e-06
1.1544e-05
-2.06122e-06
1.15213e-05
-1.56754e-06
1.15048e-05
-1.15325e-06
1.14915e-05
-7.93326e-07
1.14811e-05
-4.71654e-07
-1.78257e-07
1.1476e-05
1.81579e-05
-3.89345e-06
1.49804e-05
-5.89141e-06
1.36312e-05
-5.00584e-06
1.30276e-05
-3.98226e-06
1.27248e-05
-3.15526e-06
1.2558e-05
-2.49311e-06
1.24575e-05
-1.95106e-06
1.2392e-05
-1.49616e-06
1.23463e-05
-1.10406e-06
1.2313e-05
-7.5779e-07
1.22885e-05
-4.46841e-07
-1.64396e-07
1.22766e-05
1.77499e-05
-2.01115e-06
1.57857e-05
-3.89334e-06
1.46635e-05
-3.83806e-06
1.40412e-05
-3.33344e-06
1.36827e-05
-2.77583e-06
1.34647e-05
-2.26e-06
1.33246e-05
-1.80112e-06
1.32297e-05
-1.39495e-06
1.31623e-05
-1.03271e-06
1.31125e-05
-7.0619e-07
1.3076e-05
-4.07519e-07
-1.42456e-07
1.30537e-05
1.74942e-05
-1.17624e-06
1.63076e-05
-2.6722e-06
1.54478e-05
-2.95761e-06
1.48945e-05
-2.75257e-06
1.45387e-05
-2.39713e-06
1.43049e-05
-2.00916e-06
1.41464e-05
-1.63044e-06
1.40346e-05
-1.27505e-06
1.39525e-05
-9.45651e-07
1.38911e-05
-6.40463e-07
1.38419e-05
-3.58728e-07
1.38041e-05
-1.04239e-07
1.14827e-05
9.97773e-08
1.14969e-05
3.90624e-07
1.15142e-05
7.05223e-07
1.15342e-05
1.05274e-06
1.15579e-05
1.44646e-06
1.15926e-05
1.90626e-06
1.16518e-05
2.46437e-06
1.17678e-05
3.17372e-06
1.20301e-05
4.13677e-06
1.27698e-05
5.60463e-06
1.57126e-05
8.30864e-06
1.17008e-05
1.22891e-05
9.00179e-08
1.23148e-05
3.68792e-07
1.23492e-05
6.73736e-07
1.23936e-05
1.00893e-06
1.24528e-05
1.38241e-06
1.25407e-05
1.80939e-06
1.2682e-05
2.30737e-06
1.29296e-05
2.90383e-06
1.33941e-05
3.6314e-06
1.4407e-05
4.55194e-06
1.69751e-05
5.653e-06
5.64801e-06
1.30753e-05
6.95605e-08
1.31118e-05
3.33287e-07
1.316e-05
6.26044e-07
1.32224e-05
9.43678e-07
1.33066e-05
1.29133e-06
1.34273e-05
1.67633e-06
1.36125e-05
2.10529e-06
1.39103e-05
2.58263e-06
1.44103e-05
3.09762e-06
1.52978e-05
3.60428e-06
1.69845e-05
3.92959e-06
3.0307e-06
1.38421e-05
3.26406e-08
1.38895e-05
2.87083e-07
1.39482e-05
5.67052e-07
1.40232e-05
8.64757e-07
1.41226e-05
1.18385e-06
1.426e-05
1.52477e-06
1.44607e-05
1.88621e-06
1.47614e-05
2.25638e-06
1.52208e-05
2.60436e-06
1.59356e-05
2.85015e-06
1.70367e-05
2.78061e-06
1.77348e-06
2.00786e-06
-7.42367e-07
1.26052e-06
-1.90302e-06
6.24932e-07
-2.29241e-06
1.63254e-07
-2.26897e-06
-1.58451e-07
-2.05605e-06
-3.83246e-07
-1.76919e-06
-5.43299e-07
-1.45933e-06
-6.60925e-07
-1.14978e-06
-7.50395e-07
-8.50589e-07
-8.20821e-07
-5.6752e-07
-8.81252e-07
-2.94341e-07
-3.26406e-08
-9.48816e-07
1.55326e-06
-5.03992e-07
1.0711e-06
-1.40097e-06
5.99588e-07
-1.80621e-06
2.23842e-07
-1.87202e-06
-5.84272e-08
-1.7548e-06
-2.66778e-07
-1.54493e-06
-4.21834e-07
-1.29233e-06
-5.40169e-07
-1.02291e-06
-6.34679e-07
-7.50451e-07
-7.14446e-07
-4.82583e-07
-8.01056e-07
-2.04369e-07
1.04456e-07
-9.42344e-07
1.22981e-06
-3.6166e-07
9.05991e-07
-1.06411e-06
5.55758e-07
-1.4378e-06
2.51675e-07
-1.55161e-06
9.19989e-09
-1.49653e-06
-1.78534e-07
-1.34376e-06
-3.23561e-07
-1.13699e-06
-4.37995e-07
-9.00883e-07
-5.34191e-07
-6.48336e-07
-6.28397e-07
-3.84345e-07
-7.70153e-07
-6.00239e-08
4.11409e-07
-1.06693e-06
9.93238e-07
-2.71859e-07
7.69035e-07
-8.28221e-07
5.04209e-07
-1.16274e-06
2.59557e-07
-1.29235e-06
5.39463e-08
-1.27601e-06
-1.11823e-07
-1.16493e-06
-2.4371e-07
-9.94711e-07
-3.49966e-07
-7.86907e-07
-4.42324e-07
-5.50701e-07
-5.40476e-07
-2.8197e-07
-6.9623e-07
1.01391e-07
-1.34391e-06
1.0546e-06
-8.76588e-07
-4.29916e-08
-8.15179e-07
2.23505e-07
-7.46989e-07
4.95795e-07
-6.62634e-07
7.74936e-07
-5.54642e-07
1.06636e-06
-4.09777e-07
1.36647e-06
-2.08301e-07
1.667e-06
7.66633e-08
1.94945e-06
4.78427e-07
2.17389e-06
1.03424e-06
2.25667e-06
1.75892e-06
2.02689e-06
1.12425e-06
-7.9734e-07
-1.86315e-07
-7.09876e-07
1.35003e-07
-6.31324e-07
4.15116e-07
-5.4205e-07
6.80751e-07
-4.32816e-07
9.47783e-07
-2.91251e-07
1.21148e-06
-1.02106e-07
1.46018e-06
1.52569e-07
1.67371e-06
4.89238e-07
1.81134e-06
9.16899e-07
1.80091e-06
1.40422e-06
1.51496e-06
7.61712e-07
-7.64642e-07
-5.00953e-07
-6.23945e-07
-1.07249e-08
-5.32031e-07
3.18778e-07
-4.41124e-07
5.8332e-07
-3.35328e-07
8.32791e-07
-2.02546e-07
1.0662e-06
-3.06363e-08
1.27339e-06
1.91011e-07
1.43403e-06
4.68907e-07
1.51241e-06
7.97049e-07
1.44999e-06
1.13269e-06
1.15865e-06
5.48227e-07
-6.86011e-07
-1.15518e-06
-5.32946e-07
-1.65395e-07
-4.39863e-07
2.23418e-07
-3.53723e-07
4.92507e-07
-2.55712e-07
7.26495e-07
-1.34729e-07
9.33493e-07
1.79957e-08
1.1063e-06
2.08122e-07
1.22763e-06
4.35929e-07
1.26704e-06
6.88586e-07
1.17925e-06
9.27199e-07
9.09226e-07
4.08341e-07
8.16894e-07
-2.11158e-07
6.56123e-07
-6.59249e-07
4.53883e-07
-9.5e-07
2.56407e-07
-1.0831e-06
8.31929e-08
-1.0904e-06
-6.11514e-08
-1.00958e-06
-1.78547e-07
-8.68627e-07
-2.73138e-07
-6.85609e-07
-3.51119e-07
-4.67674e-07
-4.17568e-07
-2.11553e-07
-4.73854e-07
1.60772e-07
6.02396e-07
6.82662e-07
-1.68135e-07
5.64499e-07
-5.33297e-07
4.07381e-07
-7.85679e-07
2.47598e-07
-9.12971e-07
1.0208e-07
-9.33885e-07
-2.24629e-08
-8.74918e-07
-1.25375e-07
-7.57408e-07
-2.07303e-07
-5.97705e-07
-2.69383e-07
-4.01303e-07
-3.05883e-07
-1.72163e-07
-2.67182e-07
1.28428e-07
3.36471e-07
5.78931e-07
-1.36301e-07
4.89732e-07
-4.38366e-07
3.6629e-07
-6.56312e-07
2.36257e-07
-7.74576e-07
1.14046e-07
-8.02222e-07
7.20937e-09
-7.59029e-07
-8.24274e-08
-6.61093e-07
-1.52454e-07
-5.21764e-07
-2.01773e-07
-3.48244e-07
-2.22036e-07
-1.48417e-07
-1.79604e-07
8.8265e-08
1.76323e-07
4.97356e-07
-1.11745e-07
4.28695e-07
-3.64183e-07
3.30587e-07
-5.52902e-07
2.24274e-07
-6.61989e-07
1.21398e-07
-6.9175e-07
2.98893e-08
-6.60753e-07
-4.77706e-08
-5.77172e-07
-1.07704e-07
-4.57871e-07
-1.47573e-07
-3.04988e-07
-1.59897e-07
-1.34111e-07
-1.21758e-07
5.4643e-08
5.57778e-08
4.32374e-07
-9.25253e-08
3.78536e-07
-3.06434e-07
2.99579e-07
-4.71943e-07
2.12675e-07
-5.69535e-07
1.25489e-07
-5.98542e-07
4.75724e-08
-5.75368e-07
-2.03285e-08
-5.05302e-07
-7.12915e-08
-4.01258e-07
-1.04858e-07
-2.69552e-07
-1.12671e-07
-1.22515e-07
-8.26456e-08
2.58683e-08
-1.25974e-08
3.79783e-07
-7.69305e-08
3.36718e-07
-2.60075e-07
2.73208e-07
-4.04878e-07
2.01967e-07
-4.96368e-07
1.27663e-07
-5.19035e-07
6.10004e-08
-5.05462e-07
1.80613e-09
-4.4111e-07
-4.22765e-08
-3.55255e-07
-7.08879e-08
-2.37714e-07
-7.6949e-08
-1.14839e-07
-5.32315e-08
6.05259e-09
-6.11161e-08
3.37531e-07
-6.38804e-08
3.02659e-07
-2.22714e-07
2.50582e-07
-3.53235e-07
1.93682e-07
-4.31755e-07
1.28211e-07
-4.53362e-07
7.24528e-08
-4.42371e-07
1.87926e-08
-3.87783e-07
-1.83462e-08
-3.13002e-07
-4.45949e-08
-2.11807e-07
-4.90659e-08
-1.06992e-07
-3.20411e-08
-9.97346e-09
-8.48031e-08
3.0951e-07
-5.25654e-08
2.80091e-07
-1.90862e-07
2.37522e-07
-3.04365e-07
1.90465e-07
-3.85204e-07
1.31412e-07
-3.89217e-07
8.3088e-08
-3.93089e-07
3.33238e-08
-3.33798e-07
7.16143e-10
-2.79134e-07
-2.42889e-08
-1.83791e-07
-2.82628e-08
-1.00361e-07
-1.5022e-08
-1.92803e-08
-9.69333e-08
3.13963e-07
-4.24214e-08
2.86846e-07
-1.62726e-07
2.46062e-07
-2.69316e-07
2.08284e-07
-3.11702e-07
1.43842e-07
-3.52189e-07
1.02175e-07
-3.21875e-07
4.68498e-08
-3.02698e-07
1.84168e-08
-2.30404e-07
-1.07525e-08
-1.701e-07
-1.34462e-08
-8.72436e-08
-3.53571e-09
-3.5453e-08
-9.20792e-08
3.92055e-07
-2.87896e-08
3.59623e-07
-1.34197e-07
3.18526e-07
-2.00934e-07
2.71434e-07
-2.35368e-07
1.98082e-07
-2.81319e-07
1.42646e-07
-2.52387e-07
7.78185e-08
-2.46044e-07
3.90493e-08
-1.82751e-07
3.82567e-09
-1.42262e-07
-2.96101e-09
-7.30879e-08
6.78359e-09
-4.20192e-08
-8.69276e-08
6.25967e-07
-9.84738e-10
5.79029e-07
-7.32512e-08
5.2386e-07
-7.27431e-08
4.54019e-07
-7.93649e-08
3.44234e-07
-1.63513e-07
2.54294e-07
-1.25038e-07
1.53532e-07
-1.58809e-07
8.83645e-08
-9.77979e-08
3.19445e-08
-9.74922e-08
1.56148e-08
-3.60176e-08
1.55009e-08
-3.62419e-08
-7.26444e-08
9.62033e-07
9.04223e-07
8.5236e-07
7.73876e-07
6.19955e-07
4.91021e-07
3.37455e-07
2.36409e-07
1.43763e-07
1.09113e-07
7.26444e-08
-4.56791e-07
-7.28776e-07
-4.07896e-07
-2.19035e-07
-3.48337e-07
1.59776e-07
-2.77111e-07
4.15304e-07
-1.90276e-07
6.31696e-07
-8.25545e-08
8.15245e-07
5.12942e-08
9.60451e-07
2.13072e-07
1.05221e-06
3.99474e-07
1.06565e-06
5.9634e-07
9.68361e-07
7.68577e-07
7.22296e-07
3.19769e-07
-2.54995e-07
-4.60622e-07
-2.97118e-07
-1.76961e-07
-2.66935e-07
1.28365e-07
-2.11285e-07
3.5611e-07
-1.36497e-07
5.49936e-07
-4.20676e-08
7.114e-07
7.40202e-08
8.32971e-07
2.10987e-07
9.03294e-07
3.63973e-07
9.0131e-07
5.18234e-07
8.03309e-07
6.4791e-07
5.90121e-07
2.51701e-07
-1.71634e-07
-3.12037e-07
-2.16093e-07
-1.35497e-07
-2.00104e-07
1.09722e-07
-1.56748e-07
3.0751e-07
-9.26978e-08
4.79799e-07
-1.08009e-08
6.20552e-07
8.95965e-08
7.23443e-07
2.0537e-07
7.76886e-07
3.31322e-07
7.64852e-07
4.54512e-07
6.7199e-07
5.51826e-07
4.81837e-07
2.08736e-07
-1.16318e-07
-1.79149e-07
-1.55852e-07
-9.40768e-08
-1.46812e-07
9.98433e-08
-1.12002e-07
2.70403e-07
-5.73617e-08
4.19072e-07
1.35612e-08
5.42414e-07
9.99871e-08
6.27632e-07
1.97878e-07
6.70788e-07
3.02449e-07
6.53207e-07
4.00913e-07
5.68248e-07
4.77847e-07
4.06914e-07
1.69067e-07
-7.83722e-08
-1.09312e-07
-1.10708e-07
-6.34269e-08
-1.04468e-07
9.28404e-08
-7.63101e-08
2.37015e-07
-2.87193e-08
3.68012e-07
3.20481e-08
4.73175e-07
1.07294e-07
5.46575e-07
1.89698e-07
5.79245e-07
2.77453e-07
5.59292e-07
3.57518e-07
4.83516e-07
4.16631e-07
3.3913e-07
1.45876e-07
-5.10476e-08
-4.0881e-08
-7.60234e-08
-3.56824e-08
-7.13004e-08
8.68406e-08
-4.72548e-08
2.11484e-07
-6.1073e-09
3.20738e-07
4.65909e-08
4.1536e-07
1.11835e-07
4.72911e-07
1.81555e-07
5.0463e-07
2.56127e-07
4.80531e-07
3.20598e-07
4.18098e-07
3.68824e-07
2.95081e-07
1.19719e-07
-3.11103e-08
-8.27503e-09
-4.998e-08
-1.7308e-08
-4.47689e-08
8.20912e-08
-2.48813e-08
1.87142e-07
1.2781e-08
2.82454e-07
5.69936e-08
3.63135e-07
1.16168e-07
4.13347e-07
1.73558e-07
4.38609e-07
2.39515e-07
4.16958e-07
2.91112e-07
3.6244e-07
3.28463e-07
2.51483e-07
1.04686e-07
-1.60234e-08
1.78191e-08
-3.05367e-08
-1.30814e-09
-2.464e-08
7.42147e-08
-7.04826e-09
1.67643e-07
2.82378e-08
2.41443e-07
6.67869e-08
3.21161e-07
1.21713e-07
3.51541e-07
1.7052e-07
3.8887e-07
2.30663e-07
3.55297e-07
2.7198e-07
3.23986e-07
3.02894e-07
2.20405e-07
8.99629e-08
-4.67991e-09
3.39449e-08
-1.84281e-08
8.93269e-09
-9.40961e-09
7.40901e-08
5.79227e-09
1.38587e-07
4.57887e-08
2.20301e-07
7.88093e-08
2.61593e-07
1.4055e-07
3.20405e-07
1.80914e-07
3.1437e-07
2.47477e-07
3.25025e-07
2.79515e-07
2.60443e-07
3.08571e-07
1.92853e-07
7.41838e-08
1.78547e-09
4.44025e-08
-8.08634e-09
2.41404e-08
3.20412e-09
6.52383e-08
2.56342e-08
1.12334e-07
7.17324e-08
1.77205e-07
1.16918e-07
2.05041e-07
1.87887e-07
2.58407e-07
2.42387e-07
2.4589e-07
3.1896e-07
2.67512e-07
3.59166e-07
2.02202e-07
3.87932e-07
1.42352e-07
7.6864e-08
9.00543e-09
6.01525e-08
8.8165e-09
3.74651e-08
3.06436e-08
5.05605e-08
6.98079e-08
6.15869e-08
1.40466e-07
1.09623e-07
2.14974e-07
1.01461e-07
3.231e-07
1.66742e-07
4.13936e-07
1.28176e-07
5.31513e-07
1.94465e-07
5.92347e-07
8.5765e-08
6.36242e-07
5.74728e-08
8.95498e-08
6.3354e-08
1.02974e-07
1.50312e-07
2.13596e-07
3.15387e-07
4.21943e-07
5.80869e-07
7.20694e-07
9.03003e-07
9.77985e-07
1.0464e-06
)
;

boundaryField
{
    rotor
    {
        type            calculated;
        value           uniform 0;
    }
    stator
    {
        type            calculated;
        value           uniform 0;
    }
    front
    {
        type            empty;
        value           nonuniform 0();
    }
    back
    {
        type            empty;
        value           nonuniform 0();
    }
    procBoundary3to1
    {
        type            processor;
        value           nonuniform List<scalar> 
20
(
3.18619e-05
2.30337e-05
1.95811e-05
1.82863e-05
2.39775e-06
1.75711e-06
1.34236e-06
1.05817e-06
8.57513e-07
7.08486e-07
5.97606e-07
5.10401e-07
4.43681e-07
3.88693e-07
3.46205e-07
3.17608e-07
3.21686e-07
4.08834e-07
6.7401e-07
1.14889e-06
)
;
    }
    procBoundary3to2
    {
        type            processor;
        value           nonuniform List<scalar> 
20
(
-3.16392e-05
-2.29959e-05
-1.9598e-05
-1.83127e-05
-2.422e-06
-1.77865e-06
-1.35974e-06
-1.07327e-06
-8.68728e-07
-7.17928e-07
-6.03778e-07
-5.15381e-07
-4.45772e-07
-3.89885e-07
-3.45353e-07
-3.15798e-07
-3.19803e-07
-3.98519e-07
-6.35974e-07
-9.56914e-07
)
;
    }
}


// ************************************************************************* //
