/*--------------------------------*- C++ -*----------------------------------*\
  =========                 |
  \\      /  F ield         | OpenFOAM: The Open Source CFD Toolbox
   \\    /   O peration     | Website:  https://openfoam.org
    \\  /    A nd           | Version:  6
     \\/     M anipulation  |
\*---------------------------------------------------------------------------*/
FoamFile
{
    version     2.0;
    format      ascii;
    class       volVectorField;
    location    "1000";
    object      U;
}
// * * * * * * * * * * * * * * * * * * * * * * * * * * * * * * * * * * * * * //

dimensions      [0 1 -1 0 0 0 0];

internalField   nonuniform List<vector> 
768
(
(-1.11072 0.191522 -1.85486e-20)
(-1.23165 0.163285 0)
(-1.1255 0.186271 0)
(-1.02336 0.227254 -4.39398e-18)
(-0.966434 0.274615 6.75351e-18)
(-0.923598 0.323896 0)
(-0.880233 0.372958 0)
(-0.835356 0.420784 4.21164e-18)
(-0.789141 0.467362 4.78869e-18)
(-0.743259 0.512937 1.60224e-17)
(-0.697701 0.558105 3.05858e-17)
(-0.65322 0.603369 -5.34749e-18)
(-0.78912 0.163451 -1.22601e-19)
(-0.65643 0.0795987 0)
(-0.47236 0.0680848 0)
(-0.374804 0.0721247 -3.93769e-19)
(-0.330472 0.0823989 1.096e-18)
(-0.305934 0.0954625 -3.70816e-18)
(-0.287254 0.110006 2.62027e-18)
(-0.270206 0.125136 8.3471e-19)
(-0.253552 0.140607 -1.87492e-18)
(-0.237223 0.156118 7.39465e-21)
(-0.22106 0.171746 0)
(-0.205197 0.187408 -5.06425e-18)
(-0.709957 0.0942908 5.83906e-20)
(-0.513012 0.0346413 0)
(-0.327444 0.030101 0)
(-0.244217 0.0338075 2.04541e-21)
(-0.208599 0.0405715 4.49768e-22)
(-0.189438 0.0488295 -6.21634e-19)
(-0.175563 0.0579141 0)
(-0.163454 0.0674917 -2.67393e-18)
(-0.152038 0.0773866 2.79565e-18)
(-0.141035 0.0874637 -1.07824e-18)
(-0.130305 0.0976846 -2.49013e-18)
(-0.119786 0.108003 3.79023e-18)
(-0.712003 -0.00720019 -2.05665e-20)
(-0.493208 -0.00953036 1.1738e-19)
(-0.303668 0.00518751 0)
(-0.223795 0.0149965 1.89608e-19)
(-0.190546 0.0240788 -2.25114e-19)
(-0.172138 0.0333044 5.50768e-19)
(-0.158308 0.0427831 0)
(-0.146143 0.0524218 -7.75033e-19)
(-0.134789 0.0622 -2.69551e-18)
(-0.123971 0.0720485 1.83251e-18)
(-0.113516 0.081959 2.21317e-18)
(-0.103315 0.091921 -4.52281e-18)
(-0.728332 -0.129645 1.97505e-20)
(-0.494048 -0.0586998 -1.09094e-19)
(-0.301579 -0.0202799 2.01344e-19)
(-0.222751 -0.00258849 0)
(-0.189812 0.0098234 -1.0112e-18)
(-0.170704 0.0211254 1.09884e-18)
(-0.155879 0.0321328 6.90205e-19)
(-0.142803 0.0430311 7.7194e-19)
(-0.130697 0.0538196 0)
(-0.119268 0.0644895 0)
(-0.108288 0.0750717 0)
(-0.0975943 0.085596 -5.63703e-21)
(-0.734739 -0.269268 1.65006e-19)
(-0.494496 -0.113286 0)
(-0.300746 -0.0482829 -1.91874e-19)
(-0.222879 -0.0216826 4.41395e-19)
(-0.18968 -0.00533865 4.45413e-19)
(-0.169582 0.00845699 -1.35952e-18)
(-0.153791 0.0213958 6.14301e-19)
(-0.139911 0.0338582 -3.35314e-18)
(-0.127206 0.0458966 -1.84232e-19)
(-0.115287 0.0575656 -1.03975e-19)
(-0.103871 0.0689251 -7.66854e-20)
(-0.0927484 0.0800837 6.90446e-18)
(-0.73264 -0.42816 -4.40993e-19)
(-0.489754 -0.174802 3.47315e-19)
(-0.29658 -0.079495 -4.90604e-19)
(-0.21987 -0.0427922 -4.34775e-19)
(-0.186428 -0.0217683 -1.1178e-18)
(-0.165615 -0.00502833 -7.40948e-19)
(-0.149222 0.0101499 -1.58236e-18)
(-0.135001 0.0243218 3.23246e-18)
(-0.122107 0.0376636 0)
(-0.110055 0.0503007 4.05093e-18)
(-0.0985108 0.0623657 -6.64802e-18)
(-0.0871811 0.0740076 2.35221e-18)
(-0.717753 -0.612746 -7.13698e-19)
(-0.477992 -0.245411 -6.46085e-19)
(-0.287275 -0.114428 6.79451e-19)
(-0.212291 -0.065552 0)
(-0.178994 -0.0390079 -6.17202e-19)
(-0.158067 -0.0187615 1.3282e-18)
(-0.141778 -0.00112487 4.99201e-20)
(-0.127822 0.0148218 1.70931e-19)
(-0.115249 0.0294148 -1.81801e-18)
(-0.103494 0.0429111 -4.11678e-18)
(-0.0921576 0.0555273 2.20058e-18)
(-0.0809144 0.0674848 -2.43286e-18)
(-0.66575 -0.809086 4.09682e-19)
(-0.454157 -0.326592 0)
(-0.270445 -0.152879 0)
(-0.198719 -0.0892267 0)
(-0.166735 -0.0560228 6.13407e-19)
(-0.146826 -0.0318726 0)
(-0.131582 -0.0116863 -1.18987e-19)
(-0.118627 0.00593777 3.57752e-18)
(-0.10692 0.0216227 9.81116e-20)
(-0.0958815 0.0357851 2.06754e-18)
(-0.0850858 0.0487576 -2.29054e-18)
(-0.0742148 0.060814 7.01418e-18)
(-0.515242 -0.925715 -2.19271e-20)
(-0.405175 -0.40946 1.42547e-18)
(-0.241657 -0.192119 -2.97739e-19)
(-0.177513 -0.111855 0)
(-0.149245 -0.0713858 0)
(-0.132058 -0.0432984 0)
(-0.119022 -0.020804 0)
(-0.107849 -0.00180091 1.90866e-18)
(-0.0975507 0.0146833 -7.85483e-18)
(-0.0876046 0.029261 -4.23741e-18)
(-0.0776453 0.0423594 4.47434e-18)
(-0.0673903 0.0543022 2.42568e-18)
(-0.262058 -0.935222 -1.19189e-18)
(-0.318215 -0.482784 -1.01911e-18)
(-0.194251 -0.224196 -5.00756e-19)
(-0.146976 -0.129806 0)
(-0.126677 -0.0831245 0)
(-0.114415 -0.0519374 1.69116e-18)
(-0.104787 -0.0278283 -3.63132e-18)
(-0.0960728 -0.00799363 7.60158e-18)
(-0.0875967 0.00888333 6.06224e-18)
(-0.0790219 0.0235669 4.19909e-18)
(-0.0701167 0.0365467 -4.43295e-18)
(-0.0606787 0.0481605 1.2709e-20)
(0.0124568 -0.870937 -6.96628e-19)
(-0.144128 -0.461494 0)
(-0.120661 -0.230331 8.0721e-19)
(-0.106974 -0.137311 -2.47222e-18)
(-0.100246 -0.0890466 2.46982e-18)
(-0.0951041 -0.0568697 9.63238e-20)
(-0.0897933 -0.0323488 1.78432e-18)
(-0.083949 -0.0124268 -1.81492e-18)
(-0.0775159 0.00436024 -1.00578e-17)
(-0.0704746 0.0188286 0)
(-0.0627724 0.0314644 0)
(-0.0542966 0.0425709 1.15655e-20)
(-0.608626 0.648733 -7.01074e-18)
(-0.564193 0.694524 -1.5137e-17)
(-0.519148 0.741015 -4.17673e-17)
(-0.473586 0.788302 6.96097e-17)
(-0.426498 0.835749 -2.66659e-17)
(-0.377987 0.882274 9.85364e-18)
(-0.327713 0.926038 -2.14881e-17)
(-0.276072 0.96348 4.41806e-17)
(-0.224664 1.00413 -1.68213e-17)
(-0.186879 1.12157 -1.16527e-20)
(-0.167428 1.25371 0)
(-0.198185 1.13131 0)
(-0.189498 0.203323 1.12058e-17)
(-0.173992 0.219431 -2.74622e-18)
(-0.158533 0.235972 7.54653e-21)
(-0.143089 0.252728 0)
(-0.127526 0.269718 -3.62356e-18)
(-0.112107 0.286765 0)
(-0.0969324 0.303864 -2.16815e-18)
(-0.0825706 0.322712 4.21291e-18)
(-0.0708402 0.357256 0)
(-0.0681097 0.455067 5.20585e-18)
(-0.0824857 0.653783 -7.0054e-18)
(-0.17225 0.796062 2.96319e-18)
(-0.109398 0.11845 1.51593e-18)
(-0.0991346 0.129057 -4.43936e-18)
(-0.0889394 0.139893 1.62931e-18)
(-0.0788246 0.150958 0)
(-0.0688144 0.162341 1.85535e-18)
(-0.0590493 0.174089 4.0663e-18)
(-0.0496128 0.186379 -5.11626e-18)
(-0.0405948 0.200702 2.29121e-18)
(-0.0330046 0.227694 -1.19567e-18)
(-0.0300272 0.305 0)
(-0.03727 0.495146 0)
(-0.105949 0.704261 -2.59085e-18)
(-0.0932654 0.101982 -2.58567e-18)
(-0.0833139 0.112195 2.5901e-18)
(-0.0733971 0.122657 2.96554e-18)
(-0.0635164 0.133434 -1.32856e-18)
(-0.0536644 0.144678 -3.16186e-18)
(-0.043945 0.15647 0)
(-0.0343169 0.16898 -6.7541e-20)
(-0.0248161 0.183214 3.92743e-18)
(-0.0155884 0.207915 -3.26697e-18)
(-0.00704783 0.280639 1.83057e-18)
(0.00436086 0.470558 1.5409e-19)
(-0.00559956 0.691027 -9.31547e-18)
(-0.0870487 0.0961532 2.56912e-18)
(-0.0765236 0.106841 -1.23745e-18)
(-0.0659616 0.117785 2.9322e-18)
(-0.0552602 0.129152 -1.41347e-18)
(-0.044483 0.141115 0)
(-0.0335161 0.153851 0)
(-0.0225586 0.167561 -1.82826e-18)
(-0.0113272 0.183059 -3.9158e-18)
(0.000415386 0.207762 2.10409e-18)
(0.0159175 0.279191 1.67642e-18)
(0.0503091 0.471542 -4.4056e-18)
(0.105425 0.70158 0)
(-0.0816919 0.0911404 8.71537e-20)
(-0.0705828 0.102279 -5.24591e-18)
(-0.0592461 0.11364 0)
(-0.0476293 0.125497 3.11422e-18)
(-0.0356088 0.13803 -3.11384e-18)
(-0.0231938 0.151608 0)
(-0.010384 0.166453 7.44648e-20)
(0.00299366 0.18337 7.23554e-20)
(0.017809 0.208854 0)
(0.0411724 0.27845 -3.17898e-18)
(0.10063 0.47249 4.12908e-18)
(0.234193 0.71518 -8.48438e-18)
(-0.0758327 0.0854093 -2.50706e-18)
(-0.0642683 0.0967401 7.92529e-18)
(-0.0522893 0.108274 0)
(-0.0397828 0.120225 -3.08853e-18)
(-0.0265245 0.132992 3.08859e-18)
(-0.0125136 0.146867 3.46387e-18)
(0.00247092 0.162434 -3.34956e-18)
(0.0184528 0.180498 -1.83744e-18)
(0.0371309 0.206621 0)
(0.0687849 0.274516 -1.44401e-18)
(0.156176 0.469021 3.67935e-18)
(0.373242 0.713695 0)
(-0.0695108 0.0789904 5.01356e-18)
(-0.0576897 0.0902871 -5.24416e-18)
(-0.0452516 0.101622 5.67529e-18)
(-0.0319456 0.113322 -5.9283e-18)
(-0.0175643 0.12573 -1.67941e-19)
(-0.00183095 0.139361 3.21133e-18)
(0.0154298 0.15482 3.52682e-18)
(0.0346624 0.173251 0)
(0.0578089 0.199776 -1.98143e-18)
(0.0991122 0.264821 5.58038e-18)
(0.217304 0.456839 -3.4188e-18)
(0.525134 0.704298 0)
(-0.0629894 0.072206 2.5616e-18)
(-0.0511435 0.0831886 5.92166e-20)
(-0.0384256 0.0940289 -2.78283e-18)
(-0.0245378 0.105037 0)
(-0.00915713 0.116587 0)
(0.00811836 0.129195 0)
(0.0277529 0.143631 0)
(0.0504606 0.161245 -3.5055e-18)
(0.0789987 0.186703 1.965e-18)
(0.131045 0.247474 -1.02476e-19)
(0.281739 0.430869 0)
(0.656196 0.636498 0)
(-0.0565672 0.0653595 -2.41208e-18)
(-0.044907 0.0757882 -7.77888e-18)
(-0.0321294 0.0858484 0)
(-0.0179034 0.0958124 2.73704e-18)
(-0.00181715 0.106003 5.85751e-18)
(0.0166947 0.116887 0)
(0.0383912 0.129189 0)
(0.0645332 0.144292 1.88138e-18)
(0.0988157 0.166661 -5.37608e-18)
(0.162324 0.219189 -1.15495e-19)
(0.347476 0.385484 0)
(0.764344 0.526231 0)
(-0.0504602 0.0586876 -2.38611e-18)
(-0.0391889 0.0683659 -2.46754e-18)
(-0.026579 0.0774358 5.30301e-18)
(-0.0123065 0.0860978 -8.43123e-18)
(0.00410234 0.0945624 2.68848e-18)
(0.0233162 0.103118 5.92047e-18)
(0.0463868 0.112233 -1.48474e-18)
(0.0751428 0.122934 1.72902e-18)
(0.114443 0.138725 3.53841e-18)
(0.1878 0.176833 -4.30646e-18)
(0.403189 0.308457 -2.19949e-18)
(0.852967 0.39526 0)
(-0.0448432 0.0523877 9.13824e-21)
(-0.0341277 0.0611666 5.03691e-18)
(-0.0218994 0.0691063 -5.24313e-18)
(-0.00786621 0.0763278 0)
(0.00841751 0.082877 -5.66029e-18)
(0.027648 0.0887675 -8.67121e-18)
(0.0510061 0.0939759 9.25274e-20)
(0.0806487 0.0986117 0)
(0.121904 0.10399 0)
(0.196572 0.117312 1.10119e-18)
(0.410666 0.172113 9.67128e-20)
(1.19701 0.215635 2.15127e-18)
(0.43439 -0.308756 -5.65294e-20)
(0.0721656 -0.311585 2.90385e-19)
(-0.0360035 -0.199346 0)
(-0.0640284 -0.130429 1.59539e-18)
(-0.0733926 -0.0878923 -7.78662e-19)
(-0.0759652 -0.0577462 -2.61894e-18)
(-0.0750867 -0.0343017 -1.90965e-18)
(-0.0721177 -0.0151032 1.90916e-18)
(-0.0677202 0.00111662 4.02973e-18)
(-0.0622244 0.0150797 4.26169e-18)
(-0.0557801 0.0271813 -4.42128e-18)
(-0.0483804 0.0376384 -4.57317e-18)
(0.260319 -0.140443 1.06019e-26)
(0.100229 -0.19264 1.04293e-18)
(0.00696025 -0.154556 1.8855e-18)
(-0.0329044 -0.113445 0)
(-0.0509302 -0.0809831 1.83575e-18)
(-0.0589392 -0.055204 0)
(-0.0616053 -0.0340522 1.93547e-18)
(-0.0610994 -0.0162485 6.80666e-20)
(-0.0585251 -0.000974524 -6.11353e-18)
(-0.0544728 0.0122684 -4.19914e-18)
(-0.0492806 0.0237261 4.3558e-18)
(-0.0430428 0.0334561 4.52531e-18)
(0.168638 -0.0677552 2.85288e-19)
(0.0890514 -0.123401 -2.47745e-18)
(0.0242405 -0.116211 -3.24877e-18)
(-0.0133956 -0.0942175 -9.22655e-19)
(-0.0340091 -0.0712995 -5.58326e-18)
(-0.0448517 -0.0505184 2.84792e-18)
(-0.0498529 -0.0322264 -4.87562e-20)
(-0.0511891 -0.0162032 1.95234e-18)
(-0.0500908 -0.00210915 -5.58115e-20)
(-0.047304 0.0102949 0)
(-0.043298 0.0210902 0)
(-0.0382955 0.0300944 7.21101e-21)
(0.11708 -0.0371975 2.79639e-19)
(0.0739331 -0.0812954 9.82267e-19)
(0.0294558 -0.0868936 1.87496e-18)
(-0.00209115 -0.0764458 -1.91999e-18)
(-0.0219885 -0.0609769 7.53237e-18)
(-0.0337209 -0.0447963 -3.75502e-18)
(-0.0399618 -0.0294167 0)
(-0.0424985 -0.0152978 3.98882e-18)
(-0.0424907 -0.00248588 4.02974e-18)
(-0.0407269 0.00905418 0)
(-0.0377985 0.0192618 0)
(-0.0341428 0.0277109 -1.31747e-17)
(-0.0398377 0.0465989 4.75704e-18)
(-0.0298056 0.0543629 -4.91362e-18)
(-0.0181221 0.0611057 -7.66458e-18)
(-0.00458423 0.066867 -8.32073e-20)
(0.0111461 0.0715185 5.30221e-18)
(0.0296801 0.0747718 1.39439e-17)
(0.0520503 0.0760467 2.91759e-18)
(0.0801294 0.0741859 -2.89631e-18)
(0.118061 0.0667919 0)
(0.179236 0.0473503 1.02376e-19)
(0.310442 -0.0165895 0)
(0.592223 -0.365042 -7.52237e-19)
(-0.0355378 0.0414139 0)
(-0.0262566 0.0480566 2.37389e-20)
(-0.0152067 0.0535996 4.99887e-18)
(-0.00235501 0.0579832 -7.68638e-18)
(0.0124893 0.0609325 -7.92931e-18)
(0.0297392 0.0619254 -5.45008e-18)
(0.0500697 0.0600056 6.83339e-18)
(0.0745391 0.053358 4.22791e-18)
(0.104858 0.0383253 -2.7906e-18)
(0.144544 0.00634846 1.49248e-18)
(0.198748 -0.0665348 0)
(0.216492 -0.25035 0)
(-0.032024 0.0368493 -4.59384e-18)
(-0.0234836 0.0422713 2.34312e-18)
(-0.0130706 0.0466563 -2.44495e-18)
(-0.00100086 0.0498242 2.49141e-18)
(0.0127552 0.0513718 7.65766e-18)
(0.0283757 0.0506381 0)
(0.046135 0.0465377 -1.20815e-19)
(0.0662597 0.0372175 -2.71948e-18)
(0.0885559 0.0193793 9.11864e-20)
(0.1114 -0.0129324 -2.64346e-18)
(0.127333 -0.0704384 3.25516e-19)
(0.0970104 -0.160232 -3.43594e-19)
(-0.0294352 0.0329104 -4.51143e-18)
(-0.021439 0.0369656 0)
(-0.0115579 0.0402569 4.76058e-18)
(-0.000272637 0.0424094 -7.27595e-18)
(0.0123097 0.0428802 2.44821e-18)
(0.0261845 0.0409559 0)
(0.0412966 0.0355966 -9.95685e-20)
(0.0572842 0.0252305 5.08081e-18)
(0.0729224 0.00748327 2.60886e-18)
(0.084905 -0.0208817 7.7743e-20)
(0.0849737 -0.0627845 0)
(0.0520723 -0.11132 5.92258e-19)
(0.0854438 -0.0237574 5.45106e-19)
(0.0596263 -0.056434 0)
(0.0285875 -0.0655348 1.97706e-18)
(0.00343901 -0.0612343 1.8849e-18)
(-0.0141477 -0.0509436 -3.76057e-18)
(-0.025426 -0.0385337 1.94491e-18)
(-0.0319757 -0.0258113 3.88648e-18)
(-0.0350872 -0.0135467 3.28013e-20)
(-0.0357347 -0.00202295 2.05091e-18)
(-0.0346817 0.00868214 -6.17231e-18)
(-0.0326509 0.0184773 -2.08032e-18)
(-0.0305841 0.0268985 8.62573e-18)
(0.0652766 -0.0155932 -7.97017e-19)
(0.0489567 -0.0402584 -2.59194e-19)
(0.0268023 -0.0500367 -1.93999e-18)
(0.00684194 -0.049243 0)
(-0.00835344 -0.0425631 -4.82814e-18)
(-0.0188054 -0.0331125 -2.84459e-18)
(-0.0252982 -0.0226396 5.69505e-20)
(-0.0286891 -0.0120323 1.97829e-18)
(-0.0297392 -0.0016778 -5.94898e-18)
(-0.0291449 0.00833317 8.10375e-18)
(-0.0278667 0.0182723 0)
(-0.0284431 0.0287463 8.78606e-18)
(0.0515884 -0.0108404 -1.3033e-18)
(0.0407177 -0.0296467 2.56608e-19)
(0.0245112 -0.0387678 0)
(0.00866035 -0.0397688 -3.88934e-18)
(-0.00425931 -0.0355003 4.75461e-18)
(-0.0136684 -0.0283034 4.81912e-18)
(-0.0198216 -0.0196976 -5.74812e-18)
(-0.0232261 -0.0105614 -7.81605e-18)
(-0.0244147 -0.00129405 -7.91028e-18)
(-0.0239787 0.00812381 1.00472e-17)
(-0.0235234 0.019176 -2.10358e-18)
(-0.028335 0.0369102 -2.18149e-17)
(0.0418888 -0.00787887 1.80284e-18)
(0.0342982 -0.0224272 2.53337e-19)
(0.0221635 -0.0304563 0)
(0.00951343 -0.0322903 4.77263e-18)
(-0.00138172 -0.0296107 -4.51085e-21)
(-0.00969141 -0.02411 -9.07974e-19)
(-0.0153465 -0.0170445 0)
(-0.0185782 -0.00921326 1.87599e-18)
(-0.0196955 -0.00100558 5.82467e-18)
(-0.0191422 0.00771416 2.19199e-20)
(-0.0187795 0.0204215 9.74082e-18)
(-0.0272144 0.0567259 3.742e-17)
(-0.0281225 0.0297338 8.86976e-18)
(-0.0199311 0.0321089 2.293e-18)
(-0.0102654 0.0344083 -2.29274e-18)
(0.00034104 0.0357538 4.74294e-18)
(0.0117909 0.0354173 0)
(0.0239888 0.0326827 7.28149e-18)
(0.0366568 0.0266434 -1.10494e-17)
(0.0490897 0.016103 -6.22267e-18)
(0.0596466 -0.000406968 0)
(0.0649055 -0.0241368 2.46703e-18)
(0.0583934 -0.0543471 0)
(0.0298891 -0.0825019 -5.73412e-19)
(-0.0299675 0.0277923 0)
(-0.0196396 0.0275393 0)
(-0.00968937 0.0289497 0)
(0.000298349 0.0297876 -2.31786e-18)
(0.0106312 0.0290147 -2.88372e-20)
(0.0212347 0.0259452 -2.40174e-18)
(0.0317385 0.0198614 4.78889e-18)
(0.0413181 0.00994955 -4.73107e-18)
(0.0483501 -0.00454478 0)
(0.0499786 -0.0237331 1.74665e-18)
(0.041863 -0.0456486 8.59838e-19)
(0.0192957 -0.0633376 -2.80954e-19)
(-0.0383907 0.0276855 0)
(-0.0205149 0.0232856 6.96402e-18)
(-0.00934407 0.0238931 -3.34441e-20)
(0.000116195 0.0245037 -2.86732e-20)
(0.00939454 0.023568 2.25849e-18)
(0.0185627 0.0204565 2.26552e-18)
(0.0272447 0.0146532 3.44924e-18)
(0.0346189 0.00566943 2.34143e-18)
(0.0392567 -0.00675849 1.14956e-18)
(0.0389613 -0.0221547 -2.28233e-18)
(0.030976 -0.0383403 -1.10327e-18)
(0.0133778 -0.0501683 0)
(-0.0588598 0.0258573 4.98327e-18)
(-0.0216435 0.01842 -2.6282e-18)
(-0.0088012 0.0190795 0)
(6.19932e-06 0.0198115 0)
(0.00823778 0.018926 -2.22111e-18)
(0.0161184 0.0159618 -2.33158e-20)
(0.0232829 0.0106103 -6.68547e-18)
(0.0289762 0.00264166 0)
(0.0320074 -0.00789586 -4.4231e-18)
(0.0307539 -0.0202652 0)
(0.0235369 -0.0324688 -1.06443e-18)
(0.00974735 -0.0407705 0)
(0.0347833 -0.00592606 -5.03848e-19)
(0.0292767 -0.0173517 -4.8824e-19)
(0.0199848 -0.0242389 4.88256e-19)
(0.00980711 -0.0263801 0)
(0.00064879 -0.0247387 -4.74525e-18)
(-0.00660631 -0.0205127 -2.80923e-18)
(-0.0116998 -0.014713 9.48579e-18)
(-0.0146576 -0.00804596 5.68272e-18)
(-0.0155827 -0.000927783 0)
(-0.0146157 0.00665251 1.47944e-20)
(-0.0118773 0.0184858 -1.17924e-17)
(0.00738476 0.0586338 -4.3822e-17)
(0.0294477 -0.00457328 -9.92873e-19)
(0.0253209 -0.0136752 -4.81954e-19)
(0.0180649 -0.0195192 -3.35169e-18)
(0.00980097 -0.0216928 9.39744e-19)
(0.00209466 -0.0207241 2.78722e-18)
(-0.00420255 -0.0174602 -9.35754e-18)
(-0.00873442 -0.0126981 -5.576e-18)
(-0.0113936 -0.00706564 0)
(-0.0121318 -0.00100037 0)
(-0.0109009 0.005334 -5.962e-18)
(-0.00714476 0.015114 -3.08565e-18)
(0.0142533 0.0482446 -6.11633e-17)
(0.0253602 -0.00360046 2.45594e-19)
(0.0221866 -0.0109439 2.15926e-18)
(0.016413 -0.0158835 3.75896e-18)
(0.00963456 -0.0179524 0)
(0.00313265 -0.017416 -2.78687e-18)
(-0.00232219 -0.014882 1.19712e-17)
(-0.00633213 -0.010971 -5.54507e-18)
(-0.00871229 -0.00624336 0)
(-0.0093322 -0.00114458 0)
(-0.00809621 0.00399741 0)
(-0.00457531 0.0111662 0)
(0.0112963 0.0341689 5.89419e-17)
(0.0221789 -0.00287866 0)
(0.0196808 -0.00886908 -1.4127e-18)
(0.0150135 -0.0130464 -4.67606e-19)
(0.00940039 -0.0149501 9.15493e-19)
(0.00388643 -0.0146858 1.81162e-18)
(-0.000845492 -0.0127083 -8.15348e-18)
(-0.00438923 -0.00949338 1.78309e-18)
(-0.00652863 -0.00554557 0)
(-0.00709547 -0.0012944 -7.31573e-18)
(-0.00601224 0.00283644 5.72103e-18)
(-0.00308001 0.00797476 -8.58084e-18)
(0.00790521 0.0233666 -5.62573e-17)
(0.019671 -0.00233058 7.06091e-19)
(0.0176666 -0.00726344 2.33053e-19)
(0.0138321 -0.0108057 0)
(0.00913842 -0.0125248 -9.01968e-19)
(0.00443873 -0.012422 -5.40591e-18)
(0.00031877 -0.0108727 -8.96941e-19)
(-0.00282125 -0.00822521 -2.71077e-20)
(-0.0047614 -0.00494025 -7.16421e-18)
(-0.00532212 -0.00141422 5.37369e-18)
(-0.00445763 0.00190035 -5.59146e-18)
(-0.00215589 0.00560612 1.09169e-17)
(0.00538323 0.0160068 4.86931e-20)
(0.0176722 -0.00190553 -1.14973e-18)
(0.0160326 -0.00600087 6.81005e-19)
(0.012839 -0.00901717 -4.52178e-19)
(0.00888309 -0.0105601 8.87924e-19)
(0.00485405 -0.0105276 7.05966e-18)
(0.00123852 -0.00932023 8.77405e-19)
(-0.00155169 -0.00712292 5.26184e-18)
(-0.0033372 -0.00440587 1.23072e-17)
(-0.00391413 -0.00148165 1.7614e-18)
(-0.00328828 0.00118007 0)
(-0.00154395 0.00388912 0)
(0.00363732 0.0109812 5.15174e-17)
(0.016098 -0.00157021 6.773e-27)
(0.0147364 -0.00499632 -1.34348e-18)
(0.0120301 -0.0075801 -3.98451e-18)
(0.00867533 -0.00894736 0)
(0.00518728 -0.00894962 0)
(0.00198154 -0.00800181 -1.73162e-18)
(-0.000522474 -0.00617215 1.73158e-18)
(-0.00219303 -0.00392704 -1.38263e-17)
(-0.00280167 -0.00150198 -8.66056e-18)
(-0.00240634 0.000643069 3.56305e-18)
(-0.00112411 0.00265746 1.74893e-17)
(0.00238895 0.00750423 9.86154e-17)
(0.0151055 -0.00131303 6.66528e-19)
(0.0139487 -0.00421657 2.41137e-18)
(0.0116002 -0.00644706 6.5167e-18)
(0.00868762 -0.00768601 -6.90536e-18)
(0.0055947 -0.00765621 -6.00578e-18)
(0.0026629 -0.00692862 -2.558e-18)
(0.000359657 -0.00535903 1.70325e-18)
(-0.00126463 -0.00350525 6.78974e-18)
(-0.00192596 -0.00146317 2.04055e-17)
(-0.00174877 0.000277536 1.39532e-17)
(-0.000831001 0.0018064 3.94524e-22)
(0.00154272 0.00508873 -2.1383e-20)
(0.0156608 -0.00118001 -9.56702e-19)
(0.0146023 -0.00381098 -1.9034e-18)
(0.0123435 -0.00586315 -3.76953e-18)
(0.00961187 -0.00696621 1.40412e-17)
(0.00654944 -0.00702588 7.43611e-18)
(0.00361959 -0.00631275 9.27904e-19)
(0.00123875 -0.00495574 -7.38784e-18)
(-0.000485702 -0.00324313 0)
(-0.00130861 -0.00145517 1.2578e-20)
(-0.00132951 8.74323e-05 -3.01662e-17)
(-0.000676016 0.00129952 -2.26271e-17)
(0.000956506 0.00347634 1.13194e-17)
(0.0204278 -0.00127814 0)
(0.0192628 -0.00413244 3.65929e-18)
(0.0166202 -0.00632869 -6.55652e-18)
(0.0133765 -0.00742362 -1.15542e-17)
(0.0095446 -0.00770601 -1.006e-17)
(0.00589042 -0.00678316 -4.28947e-18)
(0.00272893 -0.00543812 -4.29668e-21)
(0.000444691 -0.00348546 -1.99283e-17)
(-0.00087823 -0.00164474 -4.8355e-17)
(-0.00115721 3.16358e-06 2.59528e-17)
(-0.000696363 0.00109859 0)
(0.000585012 0.00257588 -1.88471e-16)
(0.0358639 -0.00176116 0)
(0.0340676 -0.00564488 -1.20595e-17)
(0.0299417 -0.00842232 1.19553e-17)
(0.0247161 -0.00997674 -3.38303e-18)
(0.0183975 -0.0104602 5.7328e-17)
(0.0121895 -0.00919587 2.68916e-17)
(0.00666042 -0.00733094 2.67938e-17)
(0.00247761 -0.00463909 5.34998e-17)
(-0.00019465 -0.00216336 5.34589e-17)
(-0.00117983 -2.21417e-05 0)
(-0.000935883 0.00117662 0)
(0.00015801 0.00210719 1.17856e-16)
(0.0758231 -0.00293605 -1.22755e-17)
(0.0717321 -0.00899024 1.02236e-16)
(0.0639472 -0.0133864 4.20125e-17)
(0.05394 -0.0160622 9.6534e-17)
(0.0415327 -0.0169535 -9.70573e-17)
(0.0288218 -0.0149379 -2.42213e-17)
(0.0172641 -0.0117774 2.42424e-17)
(0.0081594 -0.00737199 -2.41603e-17)
(0.00198148 -0.00337335 2.41694e-17)
(-0.000932167 -0.000133789 0)
(-0.00130527 0.00136231 0)
(-0.000239013 0.00179068 2.54472e-16)
(-0.0603471 -0.00963513 0)
(-0.0194847 0.0114291 -1.58744e-17)
(-0.00758841 0.0145533 2.224e-18)
(8.66462e-05 0.0157092 0)
(0.00723328 0.0150023 0)
(0.0139557 0.012287 2.17195e-18)
(0.0198622 0.00745586 3.28206e-18)
(0.0242792 0.000475527 -1.08633e-18)
(0.0262363 -0.00842028 4.33802e-18)
(0.0245681 -0.0184187 0)
(0.0182736 -0.027797 2.10544e-18)
(0.0073653 -0.0338597 5.12302e-19)
(-0.0495251 -0.0159338 0)
(-0.0159115 0.00674104 0)
(-0.00610779 0.0108436 -8.80606e-18)
(0.000300884 0.012265 0)
(0.00638854 0.0117272 -2.11139e-18)
(0.0120776 0.00928777 4.22638e-18)
(0.0169418 0.0049818 -1.05588e-17)
(0.0203865 -0.0010907 -1.05298e-18)
(0.0216287 -0.00859872 1.053e-18)
(0.0198407 -0.0167406 4.14303e-18)
(0.0144473 -0.0240911 0)
(0.00571508 -0.0286582 -5.02384e-19)
(-0.0352509 -0.0125309 0)
(-0.011847 0.00424697 -3.23455e-18)
(-0.0046308 0.00806329 1.29135e-17)
(0.000564691 0.00947326 -2.05155e-18)
(0.00567937 0.00903502 0)
(0.0104591 0.00685136 -6.17117e-18)
(0.0144629 0.00303556 1.44491e-17)
(0.0171613 -0.00223593 0)
(0.0179283 -0.00858777 0)
(0.016178 -0.0152819 -3.55949e-18)
(0.0115893 -0.0211317 1.49161e-18)
(0.00452568 -0.0246665 4.90782e-19)
(-0.0244306 -0.00891918 0)
(-0.00854913 0.00283007 0)
(-0.00335237 0.0060023 -8.38723e-18)
(0.000816108 0.00724386 2.01539e-18)
(0.00507087 0.00683735 -2.0079e-18)
(0.00906817 0.00487615 1.813e-17)
(0.012357 0.00149672 -2.05025e-18)
(0.0144843 -0.00307975 5.00604e-18)
(0.014933 -0.00847963 -4.98209e-18)
(0.0133019 -0.0140297 3.9459e-18)
(0.0094103 -0.0187672 -1.95562e-18)
(0.00363926 -0.02156 -4.81202e-19)
(-0.0169635 -0.00622493 0)
(-0.00607793 0.00197893 1.18042e-17)
(-0.00231635 0.00447496 8.18081e-18)
(0.00101529 0.00547679 0)
(0.00454061 0.00506073 -5.88977e-18)
(0.0078635 0.00327881 -1.18194e-17)
(0.0105683 0.000278447 -1.27818e-17)
(0.0122486 -0.00371065 2.91443e-18)
(0.0124898 -0.008327 3.90391e-18)
(0.0110123 -0.0129794 -3.86896e-18)
(0.00771498 -0.0168574 0)
(0.0029604 -0.0191109 0)
(-0.0118072 -0.00429591 0)
(-0.00427047 0.0014271 -1.12903e-17)
(-0.00151752 0.00332757 1.99652e-18)
(0.00115054 0.00407632 -1.92382e-18)
(0.00406019 0.00362388 7.70391e-18)
(0.00681535 0.00198843 1.92244e-18)
(0.009034 -0.000692715 5.77486e-18)
(0.0103725 -0.00418338 -1.62701e-17)
(0.010473 -0.00816365 9.54299e-19)
(0.0091699 -0.0120945 -4.69423e-19)
(0.0063741 -0.0153196 4.69422e-19)
(0.00243148 -0.0171644 0)
(-0.00818094 -0.00290135 0)
(-0.00296308 0.00105958 -2.16402e-17)
(-0.00092265 0.00246122 0)
(0.00122329 0.0029752 -7.53801e-18)
(0.00361775 0.00246823 5.64253e-18)
(0.00590141 0.000947506 1.12819e-17)
(0.00772077 -0.00147604 -9.4266e-19)
(0.00879774 -0.00455799 6.55942e-18)
(0.00881002 -0.00802603 0)
(0.00767854 -0.0113947 -4.59331e-19)
(0.00530675 -0.0140977 4.59331e-19)
(0.00200736 -0.0156375 0)
(-0.00564232 -0.00192308 0)
(-0.00205355 0.000807166 -2.59915e-18)
(-0.000516487 0.00181883 1.90054e-18)
(0.00122785 0.00211879 -7.37883e-18)
(0.00321204 0.00153608 -1.47548e-17)
(0.0051277 7.62038e-05 -5.53709e-18)
(0.00662677 -0.00218158 -1.8405e-18)
(0.00752688 -0.00496994 -8.23135e-18)
(0.00747063 -0.0080804 9.13155e-19)
(0.00651375 -0.0110377 -4.0619e-18)
(0.00446407 -0.0133746 4.4986e-19)
(0.00168645 -0.0146952 0)
(-0.00390276 -0.0012322 -9.79073e-17)
(-0.00151896 0.000684266 2.16931e-17)
(-0.000295509 0.00142666 -1.43594e-17)
(0.00121374 0.00153274 -1.98681e-18)
(0.00298271 0.000801072 7.98409e-18)
(0.00468252 -0.000762452 1.98986e-18)
(0.00605088 -0.00307961 -1.98977e-18)
(0.00681655 -0.00587973 1.31239e-20)
(0.00678052 -0.00894203 0)
(0.0058594 -0.0118272 3.91162e-18)
(0.00401621 -0.0140282 0)
(0.00149766 -0.0152792 0)
(-0.00291937 -0.000758676 1.01306e-16)
(-0.0013311 0.000729056 -3.43452e-17)
(-0.000221183 0.00132299 2.81448e-17)
(0.00132173 0.00116476 2.46288e-17)
(0.00321462 3.50731e-05 3.07089e-18)
(0.00500967 -0.00211251 1.22626e-17)
(0.00655192 -0.00508637 -1.37733e-17)
(0.00729637 -0.00865747 9.1511e-18)
(0.00735526 -0.0124373 1.51954e-18)
(0.00623552 -0.0159832 6.01584e-18)
(0.00428179 -0.0186219 -2.98381e-18)
(0.00159793 -0.0201182 0)
(-0.00239211 -0.000240253 0)
(-0.00145373 0.00105412 6.35596e-17)
(-0.000291616 0.00149596 -6.5408e-17)
(0.00166595 0.000706192 1.44495e-17)
(0.00417073 -0.0016353 -1.44308e-17)
(0.00663238 -0.00554872 -2.87957e-17)
(0.00875687 -0.010736 3.94963e-17)
(0.00981373 -0.0167965 -3.58127e-18)
(0.00994104 -0.0231096 0)
(0.00836718 -0.0289214 -1.41228e-17)
(0.00567488 -0.0332121 2.10146e-17)
(0.00218462 -0.0356555 0)
(-0.00204377 0.000270472 -2.73069e-16)
(-0.00177756 0.00163829 2.13152e-16)
(-0.000410199 0.00160739 2.09338e-16)
(0.00248046 -0.000900882 0)
(0.0064098 -0.00639503 -2.08915e-16)
(0.0104253 -0.0148216 -1.82208e-16)
(0.0139337 -0.0256461 7.77551e-17)
(0.0157943 -0.038059 -1.28702e-17)
(0.016072 -0.0508759 1.28722e-17)
(0.0135318 -0.0624673 0)
(0.00916916 -0.0710323 -2.93909e-21)
(0.0035662 -0.0761847 1.25573e-17)
)
;

boundaryField
{
    rotor
    {
        type            fixedValue;
        value           nonuniform List<vector> 
48
(
(-0.201784 0.00660572 0)
(-0.20092 0.0197889 0)
(-0.199195 0.0328873 0)
(-0.196618 0.0458448 0)
(-0.193198 0.0586061 0)
(-0.188952 0.0711164 0)
(-0.183896 0.0833222 0)
(-0.178053 0.0951712 0)
(-0.171447 0.106613 0)
(-0.164107 0.117597 0)
(-0.156065 0.128079 0)
(-0.147354 0.138012 0)
(-0.138012 0.147354 0)
(-0.128079 0.156065 0)
(-0.117597 0.164107 0)
(-0.106613 0.171447 0)
(-0.0951712 0.178053 0)
(-0.0833222 0.183896 0)
(-0.0711164 0.188952 0)
(-0.0586061 0.193198 0)
(-0.0458448 0.196618 0)
(-0.0328873 0.199195 0)
(-0.0197889 0.20092 0)
(-0.00660572 0.201784 0)
(0 0.214625 0)
(0 0.239875 0)
(0 0.265125 0)
(0 0.290375 0)
(0 0.315625 0)
(0 0.340875 0)
(0 0.366125 0)
(0 0.391375 0)
(0 0.416625 0)
(0 0.441875 0)
(0 0.467125 0)
(0 0.492375 0)
(-0.214625 3.8523e-10 0)
(-0.239875 4.30551e-10 0)
(-0.265125 4.75872e-10 0)
(-0.290375 5.21193e-10 0)
(-0.315625 5.66514e-10 0)
(-0.340875 6.11835e-10 0)
(-0.366125 6.57157e-10 0)
(-0.391375 7.02478e-10 0)
(-0.416625 7.47799e-10 0)
(-0.441875 7.9312e-10 0)
(-0.467125 8.38441e-10 0)
(-0.492375 8.83762e-10 0)
)
;
    }
    stator
    {
        type            noSlip;
    }
    front
    {
        type            empty;
    }
    back
    {
        type            empty;
    }
    procBoundary3to1
    {
        type            processor;
        value           nonuniform List<vector> 
20
(
(-0.308238 -0.431104 2.97115e-19)
(-0.139829 -0.257834 0)
(-0.066951 -0.166337 -2.66742e-19)
(-0.0366402 -0.115192 -5.433e-19)
(-0.0233877 -0.0839013 5.28666e-19)
(-0.0153724 -0.0639813 -2.56701e-19)
(-0.0107272 -0.0504818 0)
(-0.00783658 -0.0409149 0)
(-0.00593119 -0.0339188 -5.00452e-19)
(-0.00460787 -0.0286618 4.90761e-19)
(-0.0036531 -0.0246452 -4.82375e-19)
(-0.00293956 -0.0215174 4.72959e-19)
(-0.00239382 -0.0190642 0)
(-0.00197256 -0.0171115 0)
(-0.00163195 -0.0155895 0)
(-0.00138744 -0.0146339 0)
(-0.00123717 -0.0151932 0)
(-0.00130036 -0.0198865 0)
(-0.00177808 -0.035147 0)
(-0.00294658 -0.075531 -1.21504e-17)
)
;
    }
    procBoundary3to2
    {
        type            processor;
        value           nonuniform List<vector> 
20
(
(0.367041 0.595264 1.50504e-18)
(0.252657 0.217207 -4.46469e-19)
(0.16235 0.0976609 -1.55556e-20)
(0.113046 0.0524966 -9.02531e-19)
(0.0838797 0.0301688 1.15105e-18)
(0.0644621 0.0195348 -2.75786e-19)
(0.0511079 0.0135993 -5.41743e-19)
(0.0415774 0.00996117 1.06087e-18)
(0.0345659 0.00757274 -5.19278e-19)
(0.0292876 0.00591509 -5.06843e-19)
(0.0252353 0.00471752 4.96969e-19)
(0.0220787 0.00382237 -2.44906e-19)
(0.0195862 0.00313837 9.5195e-19)
(0.0175981 0.00260201 -9.33436e-19)
(0.0160345 0.00217871 2.29821e-19)
(0.0150629 0.00184516 -8.96259e-19)
(0.0156574 0.00166533 9.70679e-19)
(0.0205522 0.00178005 1.49381e-18)
(0.036228 0.00234933 -4.39125e-18)
(0.0763092 0.0036858 -2.53813e-17)
)
;
    }
}


// ************************************************************************* //
