/*--------------------------------*- C++ -*----------------------------------*\
  =========                 |
  \\      /  F ield         | OpenFOAM: The Open Source CFD Toolbox
   \\    /   O peration     | Website:  https://openfoam.org
    \\  /    A nd           | Version:  6
     \\/     M anipulation  |
\*---------------------------------------------------------------------------*/
FoamFile
{
    version     2.0;
    format      ascii;
    class       volScalarField;
    location    "2000";
    object      p;
}
// * * * * * * * * * * * * * * * * * * * * * * * * * * * * * * * * * * * * * //

dimensions      [0 2 -2 0 0 0 0];

internalField   nonuniform List<scalar> 
768
(
0.52105
0.339529
0.205724
0.122415
0.0814401
0.0607973
0.0640785
0.0667865
0.0863878
0.10192
0.134747
0.158562
0.51795
0.384349
0.223796
0.0851723
0.0396575
0.0389665
0.0610836
0.0862906
0.121742
0.155676
0.196799
0.233295
0.352713
0.334131
0.159071
-0.0334028
-0.0969096
-0.0820084
-0.0358952
0.017133
0.0755943
0.132925
0.192306
0.248449
0.184497
0.180752
0.0232148
-0.161955
-0.212653
-0.178901
-0.112415
-0.0386707
0.0382255
0.112986
0.187691
0.258996
-0.00796549
0.0464262
-0.115834
-0.275945
-0.29567
-0.237499
-0.152816
-0.0641842
0.0248522
0.110427
0.194692
0.275115
-0.189717
-0.102184
-0.251843
-0.373032
-0.357016
-0.271782
-0.172171
-0.0699995
0.0259328
0.120346
0.208568
0.296582
-0.385044
-0.252486
-0.374632
-0.450162
-0.392224
-0.285783
-0.169524
-0.0616278
0.0424167
0.137461
0.231217
0.318831
-0.579855
-0.400238
-0.482651
-0.499021
-0.40172
-0.273047
-0.14843
-0.0348292
0.0689433
0.165276
0.256894
0.345248
-0.799682
-0.56559
-0.574685
-0.518852
-0.381716
-0.237211
-0.108192
0.00478587
0.105754
0.198681
0.286722
0.37209
-1.03261
-0.71198
-0.624537
-0.494903
-0.327814
-0.177139
-0.0515595
0.0554781
0.149648
0.236382
0.318601
0.399347
-1.23318
-0.795669
-0.590516
-0.408539
-0.235688
-0.0954405
0.0176136
0.112945
0.197381
0.275522
0.350926
0.425603
-1.31961
-0.705942
-0.410566
-0.243397
-0.107107
0.00286557
0.0943196
0.173754
0.246148
0.314685
0.382414
0.450546
0.189367
0.207336
0.230252
0.239541
0.247294
0.238244
0.224249
0.196643
0.158332
0.0302565
-0.122795
-0.136196
0.272318
0.303086
0.332291
0.351313
0.366073
0.369876
0.367212
0.347913
0.283391
0.120154
-0.0468467
-0.0818032
0.304273
0.35478
0.402144
0.442477
0.478169
0.505927
0.524074
0.517968
0.443835
0.249823
0.0826814
0.0918873
0.328971
0.394768
0.458035
0.515992
0.570196
0.617629
0.656171
0.671317
0.621253
0.446575
0.295147
0.341089
0.354296
0.429741
0.503564
0.573548
0.640824
0.703662
0.760375
0.801592
0.79094
0.660337
0.529258
0.605038
0.379516
0.463
0.542428
0.621871
0.697937
0.773226
0.844912
0.910031
0.936518
0.848693
0.728858
0.85265
0.407151
0.491294
0.576821
0.65933
0.743281
0.825304
0.909928
0.990767
1.04322
0.993764
0.897671
1.06348
0.431931
0.51754
0.602465
0.687791
0.772913
0.860748
0.950374
1.04231
1.11955
1.1044
1.02153
1.22649
0.456216
0.539464
0.622787
0.706183
0.791284
0.879055
0.972688
1.07236
1.16241
1.18562
1.13453
1.34619
0.479073
0.558462
0.637778
0.717375
0.799187
0.884549
0.977508
1.07958
1.18687
1.24126
1.21364
1.43276
0.5002
0.574463
0.648344
0.722744
0.798841
0.879431
0.968143
1.06884
1.17849
1.26705
1.2826
1.44262
0.519555
0.587913
0.655566
0.723577
0.792832
0.866439
0.946696
1.0383
1.14461
1.24632
1.29859
1.45309
-0.470688
-0.340605
-0.124866
-0.0386502
0.033684
0.103832
0.17011
0.232636
0.292618
0.351773
0.411811
0.47357
0.264384
0.05409
0.0985798
0.12401
0.153869
0.193785
0.238909
0.286505
0.335337
0.385954
0.438807
0.494468
0.517139
0.285998
0.249526
0.240692
0.246878
0.267169
0.297006
0.33281
0.372663
0.416092
0.463143
0.513112
0.612686
0.418495
0.353058
0.325744
0.318364
0.326304
0.345524
0.372435
0.405156
0.443125
0.485199
0.528858
0.537135
0.599218
0.660428
0.721521
0.783902
0.849265
0.919715
0.996933
1.07935
1.16067
1.18852
1.12587
0.553448
0.609096
0.663615
0.718067
0.773743
0.831461
0.892799
0.958068
1.02703
1.09318
1.14974
1.25578
0.568988
0.617778
0.665713
0.714329
0.763909
0.815247
0.869175
0.926144
0.985591
1.04696
1.10776
1.15105
0.585556
0.626099
0.66763
0.710979
0.755217
0.800941
0.848599
0.898931
0.951729
1.00517
1.05352
1.04777
0.651183
0.496617
0.424705
0.389492
0.374997
0.37563
0.387564
0.40786
0.435023
0.468842
0.506746
0.54396
0.658529
0.540389
0.475002
0.439491
0.422233
0.418562
0.425266
0.440248
0.462679
0.493119
0.527639
0.553339
0.659472
0.568301
0.511483
0.477804
0.45965
0.453206
0.456038
0.466568
0.484632
0.511504
0.540272
0.555941
0.658487
0.587097
0.538432
0.507421
0.489303
0.481082
0.480888
0.487407
0.500567
0.521261
0.539326
0.541111
0.605406
0.63605
0.67202
0.71103
0.750829
0.791511
0.833694
0.877667
0.922918
0.966921
0.999334
0.972497
0.632111
0.649249
0.679587
0.714874
0.750611
0.786735
0.823839
0.861756
0.899308
0.932426
0.949334
0.913871
0.661276
0.665188
0.688896
0.720238
0.751874
0.78371
0.816033
0.848338
0.878873
0.902854
0.909491
0.87377
0.694817
0.689238
0.701729
0.72708
0.75404
0.781556
0.809379
0.836648
0.861136
0.878381
0.879005
0.846855
0.656405
0.599943
0.55852
0.530409
0.512726
0.503312
0.500603
0.503388
0.511106
0.522415
0.521992
0.507521
0.654239
0.608862
0.573639
0.548406
0.531463
0.521291
0.516544
0.516083
0.518924
0.522464
0.512255
0.504666
0.651722
0.615106
0.585249
0.562726
0.546633
0.535921
0.529519
0.52636
0.525425
0.524461
0.512876
0.50776
0.649519
0.619523
0.594204
0.574179
0.559036
0.54803
0.540325
0.535021
0.531162
0.527164
0.516361
0.511735
0.647038
0.622806
0.601392
0.58373
0.569475
0.558272
0.549511
0.542411
0.53637
0.530158
0.51964
0.515768
0.645077
0.625157
0.607212
0.591587
0.578294
0.566992
0.557389
0.548872
0.541028
0.533078
0.522819
0.519068
0.642847
0.626969
0.612
0.598249
0.585834
0.574385
0.564159
0.554364
0.545212
0.535898
0.525527
0.522219
0.640974
0.628084
0.615489
0.603293
0.591633
0.580124
0.569449
0.558707
0.548644
0.538374
0.528143
0.524852
0.639079
0.628172
0.617211
0.605862
0.594881
0.583165
0.572451
0.56113
0.550801
0.54027
0.530438
0.527283
0.637443
0.626954
0.61622
0.605212
0.594174
0.582769
0.572001
0.561096
0.551042
0.541206
0.532461
0.529218
0.636422
0.625278
0.614136
0.602822
0.591579
0.580374
0.569818
0.559599
0.550176
0.541363
0.533799
0.530698
0.636087
0.624499
0.613091
0.601561
0.590172
0.579062
0.568629
0.558789
0.549712
0.541419
0.534437
0.531558
0.73744
0.720847
0.717621
0.734849
0.756782
0.780091
0.803818
0.826584
0.846166
0.858276
0.856003
0.828643
0.746924
0.740062
0.730404
0.741974
0.75949
0.778987
0.798993
0.817911
0.833448
0.842185
0.838511
0.815999
0.750114
0.746233
0.738757
0.747595
0.761748
0.777973
0.79472
0.810336
0.822708
0.828942
0.825194
0.807127
0.752234
0.749398
0.744824
0.752077
0.763571
0.776978
0.790899
0.803719
0.813578
0.818275
0.814882
0.800676
0.7539
0.751817
0.749392
0.755488
0.764791
0.775829
0.787223
0.797772
0.80559
0.809444
0.806775
0.79595
0.755765
0.754253
0.753235
0.758282
0.765714
0.774628
0.783885
0.792433
0.798782
0.80211
0.800374
0.792351
0.757399
0.756529
0.756401
0.760561
0.766281
0.773491
0.780699
0.787824
0.79278
0.796268
0.795274
0.789624
0.759043
0.758775
0.759279
0.76268
0.767044
0.772829
0.778386
0.784336
0.788247
0.791956
0.79154
0.787589
0.760358
0.760797
0.761802
0.764979
0.768409
0.773468
0.77768
0.783035
0.785946
0.789962
0.789586
0.786384
0.761393
0.762315
0.764147
0.767443
0.771166
0.775821
0.779998
0.784517
0.787342
0.790513
0.789742
0.786249
0.761781
0.762988
0.765568
0.76943
0.773824
0.778691
0.783201
0.787369
0.790257
0.792302
0.790882
0.78665
0.761545
0.762935
0.765912
0.770094
0.77488
0.779922
0.784677
0.788757
0.791716
0.793094
0.791345
0.786767
)
;

boundaryField
{
    rotor
    {
        type            zeroGradient;
    }
    stator
    {
        type            zeroGradient;
    }
    front
    {
        type            empty;
    }
    back
    {
        type            empty;
    }
    procBoundary2to0
    {
        type            processor;
        value           nonuniform List<scalar> 
20
(
1.04214
1.16212
1.0529
0.946114
0.868632
0.807712
0.765439
0.735915
0.715115
0.699476
0.687737
0.67809
0.67045
0.663608
0.658077
0.653224
0.649737
0.64798
0.647592
0.647721
)
;
    }
    procBoundary2to3
    {
        type            processor;
        value           nonuniform List<scalar> 
20
(
-0.335451
0.380653
0.625646
0.718759
0.757401
0.766174
0.76943
0.77121
0.772509
0.773711
0.774889
0.776145
0.777389
0.77866
0.77982
0.780776
0.781259
0.781214
0.780868
0.780562
)
;
    }
}


// ************************************************************************* //
