/*--------------------------------*- C++ -*----------------------------------*\
  =========                 |
  \\      /  F ield         | OpenFOAM: The Open Source CFD Toolbox
   \\    /   O peration     | Website:  https://openfoam.org
    \\  /    A nd           | Version:  6
     \\/     M anipulation  |
\*---------------------------------------------------------------------------*/
FoamFile
{
    version     2.0;
    format      ascii;
    class       surfaceScalarField;
    location    "2000";
    object      phi;
}
// * * * * * * * * * * * * * * * * * * * * * * * * * * * * * * * * * * * * * //

dimensions      [0 3 -1 0 0 0 0];

internalField   nonuniform List<scalar> 
1468
(
-1.01777e-06
1.05173e-06
-2.2006e-06
9.57655e-07
-2.77133e-06
6.16937e-07
-4.06649e-06
9.59494e-07
-4.94142e-06
9.29953e-07
-6.09832e-06
7.46695e-07
-6.57255e-06
5.38671e-07
-7.33082e-06
3.44326e-07
-7.45846e-06
2.10542e-07
-7.89638e-06
1.02328e-07
-7.76614e-06
5.4718e-08
1.50628e-09
-7.98382e-06
-4.67439e-06
5.69702e-06
-5.87977e-06
2.11634e-06
-6.1342e-06
8.58606e-07
-5.68923e-06
4.64462e-07
-5.06534e-06
2.90065e-07
-4.53249e-06
1.57688e-07
-4.0721e-06
5.91571e-08
-3.77886e-06
-1.17157e-08
-3.52853e-06
-4.81111e-08
-3.39911e-06
-6.72174e-08
-3.26775e-06
-6.34207e-08
-5.2129e-08
-3.23124e-06
-1.21899e-06
6.87285e-06
-1.74871e-06
2.61309e-06
-1.49198e-06
5.91145e-07
-1.0749e-06
2.71037e-08
-6.34934e-07
-1.611e-07
-2.58272e-07
-2.39801e-07
5.95869e-08
-2.69332e-07
2.97778e-07
-2.69716e-07
4.89509e-07
-2.458e-07
6.17211e-07
-2.06246e-07
7.09783e-07
-1.53298e-07
-9.41987e-08
7.49432e-07
-1.82402e-06
8.62587e-06
-5.87457e-07
1.33881e-06
1.38839e-07
-1.49202e-07
6.63129e-07
-5.14964e-07
1.09985e-06
-6.08664e-07
1.46003e-06
-6.16544e-07
1.76303e-06
-5.82191e-07
2.00031e-06
-5.21921e-07
2.18995e-06
-4.41128e-07
2.32212e-06
-3.47802e-07
2.4132e-06
-2.44828e-07
-1.37775e-07
2.45398e-06
-1.07511e-06
9.53404e-06
-2.79184e-08
2.2957e-07
8.58432e-07
-1.0618e-06
1.4992e-06
-1.18025e-06
2.00258e-06
-1.12884e-06
2.40647e-06
-1.04226e-06
2.73778e-06
-9.28093e-07
2.99717e-06
-8.00092e-07
3.1995e-06
-6.53549e-07
3.34146e-06
-5.03486e-07
3.43635e-06
-3.43515e-07
-1.8771e-07
3.47805e-06
-1.56046e-06
1.08735e-05
2.03627e-07
-1.62105e-06
1.35207e-06
-2.26787e-06
2.144e-06
-2.00361e-06
2.73196e-06
-1.75727e-06
3.20077e-06
-1.53473e-06
3.5635e-06
-1.32635e-06
3.85273e-06
-1.10604e-06
4.06141e-06
-8.91536e-07
4.21741e-06
-6.67377e-07
4.30693e-06
-4.55352e-07
-2.36224e-07
4.35644e-06
-1.77426e-06
1.20516e-05
4.65572e-07
-4.01072e-06
1.88855e-06
-3.75048e-06
2.82458e-06
-2.99812e-06
3.51444e-06
-2.48301e-06
4.02821e-06
-2.09721e-06
4.4302e-06
-1.75512e-06
4.72234e-06
-1.43906e-06
4.94624e-06
-1.13157e-06
5.08993e-06
-8.42877e-07
5.18883e-06
-5.60227e-07
-2.92614e-07
5.22448e-06
-1.68372e-06
1.35665e-05
8.2869e-07
-6.6134e-06
2.5306e-06
-5.50555e-06
3.63496e-06
-4.14733e-06
4.40568e-06
-3.29299e-06
4.96176e-06
-2.68935e-06
5.36883e-06
-2.19544e-06
5.66291e-06
-1.76065e-06
5.87103e-06
-1.36506e-06
6.00988e-06
-1.00139e-06
6.09395e-06
-6.61405e-07
-3.39204e-07
6.13039e-06
-1.97461e-06
1.50299e-05
1.29006e-06
-9.96872e-06
3.35168e-06
-7.61129e-06
4.61837e-06
-5.44861e-06
5.44472e-06
-4.15113e-06
6.00547e-06
-3.28064e-06
6.393e-06
-2.61019e-06
6.66069e-06
-2.05315e-06
6.8423e-06
-1.56869e-06
6.95987e-06
-1.13842e-06
7.02833e-06
-7.45856e-07
-3.80135e-07
7.05722e-06
-8.00931e-07
1.59099e-05
2.35738e-06
-1.31339e-05
4.54859e-06
-9.82334e-06
5.85886e-06
-6.77457e-06
6.6563e-06
-4.96985e-06
7.16193e-06
-3.80357e-06
7.48826e-06
-2.95599e-06
7.70351e-06
-2.28393e-06
7.84167e-06
-1.7241e-06
7.92802e-06
-1.23882e-06
7.97471e-06
-8.07153e-07
-4.08476e-07
7.99442e-06
2.64787e-06
1.33586e-05
4.73381e-06
-1.51846e-05
6.41284e-06
-1.14981e-05
7.45162e-06
-7.82026e-06
8.05614e-06
-5.58563e-06
8.41434e-06
-4.17462e-06
8.63294e-06
-3.18776e-06
8.76853e-06
-2.43279e-06
8.85097e-06
-1.81996e-06
8.89735e-06
-1.2994e-06
8.91993e-06
-8.42491e-07
-4.25738e-07
8.92791e-06
1.06898e-05
2.79862e-06
9.36622e-06
-1.37797e-05
9.22671e-06
-1.13229e-05
9.4289e-06
-8.01239e-06
9.6065e-06
-5.75853e-06
9.72116e-06
-4.29133e-06
9.79209e-06
-3.2606e-06
9.83192e-06
-2.47786e-06
9.8513e-06
-1.8453e-06
9.85494e-06
-1.31272e-06
9.85123e-06
-8.47443e-07
9.84656e-06
-4.27817e-07
-7.73316e-06
-3.08e-08
-7.75455e-06
-7.95454e-08
-7.3771e-06
-1.1804e-07
-7.20303e-06
-1.8059e-07
-6.71152e-06
-2.50982e-07
-6.29069e-06
-3.70191e-07
-5.58375e-06
-5.16224e-07
-4.83289e-06
-6.35055e-07
-4.23487e-06
-4.70819e-07
-3.57987e-06
-5.63158e-07
-1.57783e-06
-1.85721e-06
-1.53801e-06
-3.20126e-06
-3.24539e-08
-3.2559e-06
-1.84823e-08
-3.32507e-06
-8.4241e-09
-3.46929e-06
-1.35112e-08
-3.64885e-06
-3.10469e-08
-3.92228e-06
-6.99376e-08
-4.27041e-06
-1.33641e-07
-4.63559e-06
-2.3906e-07
-4.63629e-06
-4.4075e-07
-4.13684e-06
-1.02995e-06
-3.21773e-06
-2.7129e-06
-4.74563e-06
7.57783e-07
-3.11963e-08
7.16743e-07
2.90468e-08
6.39279e-07
8.41247e-08
5.09939e-07
1.28121e-07
3.36757e-07
1.59382e-07
1.10057e-07
1.71418e-07
-1.62911e-07
1.55257e-07
-4.71248e-07
8.4154e-08
-7.86426e-07
-1.13167e-07
-1.14341e-06
-6.55442e-07
-1.62123e-06
-2.22468e-06
-6.37905e-06
2.4562e-06
-2.90238e-08
2.41046e-06
7.77669e-08
2.32335e-06
1.79906e-07
2.18609e-06
2.73635e-07
2.00148e-06
3.55491e-07
1.76479e-06
4.19228e-07
1.47684e-06
4.54967e-07
1.13032e-06
4.3984e-07
7.08865e-07
3.1661e-07
1.46197e-07
-9.7282e-08
-4.92101e-07
-1.609e-06
-6.83948e-06
3.47749e-06
-2.63e-08
3.42567e-06
1.28003e-07
3.32858e-06
2.84488e-07
3.1762e-06
4.32266e-07
2.96821e-06
5.75696e-07
2.69495e-06
7.04289e-07
2.34818e-06
8.13673e-07
1.90833e-06
8.89124e-07
1.32839e-06
9.01413e-07
4.85779e-07
7.47017e-07
-7.1359e-07
-3.44607e-07
-7.52593e-06
4.34637e-06
-2.92855e-08
4.29754e-06
1.85978e-07
4.18833e-06
3.93536e-07
4.02883e-06
6.08961e-07
3.79763e-06
8.19619e-07
3.4909e-06
1.03244e-06
3.08496e-06
1.23722e-06
2.5535e-06
1.44007e-06
1.83155e-06
1.65272e-06
7.52405e-07
1.87e-06
-9.74856e-07
1.4114e-06
-8.35517e-06
5.22412e-06
-2.45995e-08
5.16581e-06
2.38061e-07
5.06487e-06
5.10501e-07
4.8974e-06
7.87195e-07
4.66371e-06
1.08029e-06
4.33518e-06
1.38323e-06
3.89535e-06
1.70773e-06
3.30516e-06
2.06518e-06
2.47757e-06
2.4996e-06
1.23018e-06
3.14205e-06
-7.95012e-07
3.60048e-06
-9.13918e-06
6.12432e-06
-2.51884e-08
6.07577e-06
2.89986e-07
5.97854e-06
6.1433e-07
5.82637e-06
9.58361e-07
5.59862e-06
1.32633e-06
5.27892e-06
1.73061e-06
4.83114e-06
2.17838e-06
4.20908e-06
2.70441e-06
3.33911e-06
3.40459e-06
2.03274e-06
4.48196e-06
7.00879e-08
5.55108e-06
-8.9201e-06
7.05232e-06
-2.54878e-08
7.01179e-06
3.30494e-07
6.93246e-06
7.02696e-07
6.8014e-06
1.10234e-06
6.60408e-06
1.54269e-06
6.31289e-06
2.03916e-06
5.89507e-06
2.61502e-06
5.30081e-06
3.32127e-06
4.42778e-06
4.2719e-06
3.10959e-06
5.80459e-06
1.07908e-06
7.68804e-06
-7.94839e-06
7.99063e-06
-2.63472e-08
7.96317e-06
3.60075e-07
7.90661e-06
7.67843e-07
7.8091e-06
1.21107e-06
7.65703e-06
1.70972e-06
7.42369e-06
2.28384e-06
7.0766e-06
2.97196e-06
6.55568e-06
3.84156e-06
5.78798e-06
5.05751e-06
4.62052e-06
6.96721e-06
3.11859e-06
9.10713e-06
-4.83186e-06
8.92696e-06
-2.94232e-08
8.91463e-06
3.74843e-07
8.88426e-06
8.04876e-07
8.8283e-06
1.27738e-06
8.73346e-06
1.81333e-06
8.58265e-06
2.44111e-06
8.34803e-06
3.21021e-06
7.98711e-06
4.20627e-06
7.42916e-06
5.59386e-06
6.66037e-06
7.72741e-06
5.49253e-06
1.02528e-05
4.82441e-07
9.84968e-06
-3.41441e-08
9.85345e-06
3.74463e-07
9.8513e-06
8.12835e-07
9.83868e-06
1.29762e-06
9.80801e-06
1.84728e-06
9.75495e-06
2.49527e-06
9.66874e-06
3.29075e-06
9.53354e-06
4.32998e-06
9.33127e-06
5.79465e-06
9.04908e-06
7.97329e-06
8.40208e-06
1.08022e-05
8.89608e-06
1.71407e-05
-2.7536e-06
1.42035e-05
-1.0769e-05
1.23027e-05
-9.38543e-06
1.14862e-05
-7.17855e-06
1.11537e-05
-5.41821e-06
1.10025e-05
-4.13753e-06
1.0921e-05
-3.1793e-06
1.08677e-05
-2.42713e-06
1.08257e-05
-1.80902e-06
1.0789e-05
-1.2846e-06
1.0759e-05
-8.26277e-07
-4.16867e-07
1.07411e-05
1.96048e-05
-2.30758e-06
1.63148e-05
-7.40888e-06
1.42097e-05
-7.23581e-06
1.30821e-05
-6.02076e-06
1.24958e-05
-4.81424e-06
1.21756e-05
-3.80371e-06
1.19834e-05
-2.97906e-06
1.18569e-05
-2.29483e-06
1.17641e-05
-1.71562e-06
1.16923e-05
-1.21532e-06
1.16375e-05
-7.77571e-07
-3.8767e-07
1.16046e-05
1.92438e-05
-1.60017e-06
1.70109e-05
-5.1208e-06
1.53186e-05
-5.50166e-06
1.42547e-05
-4.9285e-06
1.36134e-05
-4.15387e-06
1.32199e-05
-3.39741e-06
1.29663e-05
-2.71666e-06
1.27916e-05
-2.11495e-06
1.26617e-05
-1.58476e-06
1.25602e-05
-1.1179e-06
1.24824e-05
-7.03955e-07
-3.36224e-07
1.24294e-05
1.87417e-05
-1.12427e-06
1.72977e-05
-3.62855e-06
1.60428e-05
-4.20344e-06
1.51488e-05
-4.00252e-06
1.45483e-05
-3.52797e-06
1.41462e-05
-2.9767e-06
1.38703e-05
-2.42536e-06
1.36707e-05
-1.90456e-06
1.35164e-05
-1.4241e-06
1.33912e-05
-9.90757e-07
1.32873e-05
-5.99785e-07
1.32004e-05
-2.5497e-07
1.07505e-05
-4.56097e-08
1.07705e-05
3.55804e-07
1.07959e-05
7.92255e-07
1.08232e-05
1.2736e-06
1.08542e-05
1.81712e-06
1.08958e-05
2.44939e-06
1.09671e-05
3.21179e-06
1.11119e-05
4.17474e-06
1.14249e-05
5.45727e-06
1.21167e-05
7.25623e-06
1.34473e-05
9.44972e-06
1.11519e-05
1.16244e-05
-6.56876e-08
1.16614e-05
3.2108e-07
1.17105e-05
7.46284e-07
1.17718e-05
1.21251e-06
1.18517e-05
1.73408e-06
1.19654e-05
2.32696e-06
1.21466e-05
3.01795e-06
1.24618e-05
3.84243e-06
1.30499e-05
4.85317e-06
1.41862e-05
6.09195e-06
1.62308e-05
7.3672e-06
7.44881e-06
1.24686e-05
-1.09056e-07
1.25243e-05
2.64699e-07
1.2594e-05
6.75981e-07
1.26819e-05
1.1229e-06
1.27958e-05
1.61425e-06
1.2955e-05
2.15827e-06
1.31946e-05
2.7648e-06
1.35793e-05
3.44211e-06
1.42261e-05
4.1877e-06
1.534e-05
4.95613e-06
1.71904e-05
5.50068e-06
4.72142e-06
1.32799e-05
-1.88637e-07
1.33603e-05
1.83871e-07
1.34504e-05
5.8449e-07
1.35586e-05
1.01097e-06
1.3695e-05
1.47009e-06
1.38791e-05
1.96295e-06
1.41425e-05
2.4868e-06
1.45368e-05
3.03199e-06
1.51436e-05
3.56436e-06
1.60882e-05
3.99766e-06
1.75008e-05
4.07419e-06
3.0231e-06
2.96259e-06
-7.78139e-07
1.99598e-06
-2.62163e-06
1.08311e-06
-3.25414e-06
3.77018e-07
-3.26717e-06
-1.36453e-07
-2.99226e-06
-5.04331e-07
-2.59164e-06
-7.71845e-07
-2.14465e-06
-9.7546e-07
-1.69122e-06
-1.14279e-06
-1.25156e-06
-1.29076e-06
-8.41624e-07
-1.43365e-06
-4.57933e-07
-1.07349e-07
-1.57117e-06
2.29354e-06
-5.37622e-07
1.64425e-06
-1.93723e-06
9.75799e-07
-2.55268e-06
4.16176e-07
-2.67844e-06
-2.01093e-08
-2.53268e-06
-3.51091e-07
-2.24079e-06
-6.03879e-07
-1.87584e-06
-8.05291e-07
-1.4767e-06
-9.82241e-07
-1.06607e-06
-1.16029e-06
-6.58379e-07
-1.37531e-06
-2.3288e-07
1.3196e-07
-1.6275e-06
1.81709e-06
-3.80678e-07
1.37264e-06
-1.46521e-06
8.76196e-07
-2.02799e-06
4.30139e-07
-2.20783e-06
6.19717e-08
-2.14372e-06
-2.31083e-07
-1.93075e-06
-4.63339e-07
-1.62946e-06
-6.5495e-07
-1.27404e-06
-8.32506e-07
-8.81033e-07
-1.03754e-06
-4.47803e-07
-1.37531e-06
1.03139e-07
5.53955e-07
-1.77575e-06
1.47063e-06
-2.73415e-07
1.15864e-06
-1.13016e-06
7.8393e-07
-1.62931e-06
4.26608e-07
-1.82887e-06
1.17332e-07
-1.8152e-06
-1.38257e-07
-1.65887e-06
-3.45883e-07
-1.40747e-06
-5.18655e-07
-1.08956e-06
-6.77749e-07
-7.13484e-07
-8.69355e-07
-2.51548e-07
-1.25644e-06
5.0332e-07
-1.64076e-06
9.2132e-07
-1.41533e-06
-3.5659e-07
-1.29131e-06
5.28471e-08
-1.17663e-06
4.65501e-07
-1.05094e-06
8.79112e-07
-8.98394e-07
1.30935e-06
-6.9943e-07
1.75231e-06
-4.25865e-07
2.19984e-06
-3.99783e-08
2.63123e-06
5.10387e-07
3.00174e-06
1.28096e-06
3.21064e-06
2.29425e-06
3.05605e-06
2.01612e-06
-1.3421e-06
-6.40312e-07
-1.14573e-06
-1.47852e-07
-1.00432e-06
3.20194e-07
-8.68401e-07
7.37741e-07
-7.12515e-07
1.14549e-06
-5.15344e-07
1.54495e-06
-2.54052e-07
1.92681e-06
9.8079e-08
2.2675e-06
5.68665e-07
2.51906e-06
1.18004e-06
2.59613e-06
1.9045e-06
2.32639e-06
1.39407e-06
-1.31928e-06
-1.12359e-06
-1.01225e-06
-4.63205e-07
-8.49451e-07
1.50876e-07
-7.12968e-07
5.94527e-07
-5.62903e-07
9.86322e-07
-3.76899e-07
1.34878e-06
-1.37249e-07
1.6755e-06
1.73407e-07
1.94549e-06
5.6919e-07
2.115e-06
1.04817e-06
2.10522e-06
1.57272e-06
1.80216e-06
1.00029e-06
-1.17258e-06
-1.58397e-06
-8.35427e-07
-8.04498e-07
-6.9368e-07
6.0665e-09
-5.74317e-07
4.70576e-07
-4.38436e-07
8.44735e-07
-2.69374e-07
1.17265e-06
-5.47154e-08
1.45368e-06
2.15066e-07
1.66893e-06
5.43563e-07
1.77949e-06
9.22649e-07
1.72783e-06
1.30695e-06
1.41583e-06
7.38131e-07
1.21233e-06
-2.03025e-07
9.87921e-07
-8.87458e-07
7.00834e-07
-1.32222e-06
4.13126e-07
-1.52212e-06
1.53963e-07
-1.53924e-06
-6.62661e-08
-1.4237e-06
-2.4755e-07
-1.21371e-06
-3.94389e-07
-9.3224e-07
-5.12038e-07
-5.88915e-07
-5.95049e-07
-1.62999e-07
-6.49871e-07
5.55693e-07
2.95129e-07
1.01661e-06
-1.51056e-07
8.50978e-07
-7.06822e-07
6.27831e-07
-1.08338e-06
3.94714e-07
-1.2741e-06
1.77828e-07
-1.30867e-06
-1.06643e-08
-1.22331e-06
-1.66586e-07
-1.04702e-06
-2.88779e-07
-8.01449e-07
-3.73453e-07
-4.97823e-07
-3.96485e-07
-1.37765e-07
-2.19835e-07
3.86508e-07
5.51798e-08
8.6531e-07
-1.15054e-07
7.40254e-07
-5.7015e-07
5.64593e-07
-8.94298e-07
3.74657e-07
-1.0704e-06
1.92904e-07
-1.11454e-06
3.23054e-08
-1.0508e-06
-1.01304e-07
-9.0382e-07
-2.03006e-07
-6.91069e-07
-2.67772e-07
-4.27951e-07
-2.77187e-07
-1.24911e-07
-1.59924e-07
2.6438e-07
-9.16194e-08
7.47146e-07
-8.58823e-08
6.50606e-07
-4.64765e-07
5.10588e-07
-7.44754e-07
3.54695e-07
-9.0565e-07
2.02152e-07
-9.53361e-07
6.51178e-08
-9.06595e-07
-4.91895e-08
-7.82588e-07
-1.34871e-07
-6.00248e-07
-1.86246e-07
-3.72817e-07
-1.91221e-07
-1.19277e-07
-1.06276e-07
1.81585e-07
-2.18934e-07
6.53904e-07
-6.54183e-08
5.78108e-07
-3.81866e-07
4.65032e-07
-6.24049e-07
3.36394e-07
-7.67631e-07
2.07504e-07
-8.17103e-07
9.05122e-08
-7.80841e-07
-8.07131e-09
-6.78173e-07
-8.09902e-08
-5.20914e-07
-1.23552e-07
-3.27322e-07
-1.26169e-07
-1.14547e-07
-6.42546e-08
1.14936e-07
-2.78526e-07
5.83129e-07
-4.66811e-08
5.22162e-07
-3.1662e-07
4.29493e-07
-5.26354e-07
3.21578e-07
-6.55637e-07
2.1189e-07
-7.03158e-07
1.10337e-07
-6.75954e-07
2.4775e-08
-5.89469e-07
-3.91738e-08
-4.54496e-07
-7.5544e-08
-2.89562e-07
-7.87307e-08
-1.11442e-07
-3.09124e-08
6.7403e-08
-3.2555e-07
5.37871e-07
-3.36622e-08
4.87655e-07
-2.6192e-07
4.08781e-07
-4.43696e-07
3.15783e-07
-5.57834e-07
2.19403e-07
-6.02369e-07
1.28603e-07
-5.81633e-07
5.2013e-08
-5.08828e-07
-6.62259e-09
-3.94249e-07
-3.9392e-08
-2.54452e-07
-4.45435e-08
-1.07045e-07
-8.77487e-09
2.80695e-08
-3.39417e-07
5.3314e-07
-1.77112e-08
4.88522e-07
-2.14891e-07
4.16326e-07
-3.69041e-07
3.30271e-07
-4.69271e-07
2.39341e-07
-5.10713e-07
1.5224e-07
-4.923e-07
7.84705e-08
-4.35736e-07
2.03885e-08
-3.34523e-07
-1.21478e-08
-2.23352e-07
-2.08225e-08
-9.84011e-08
8.44353e-09
-3.29799e-09
-3.41435e-07
5.98797e-07
-8.27651e-09
5.54579e-07
-1.62795e-07
4.78776e-07
-2.92199e-07
3.87691e-07
-3.75937e-07
2.90763e-07
-4.06846e-07
1.94239e-07
-4.00789e-07
1.15028e-07
-3.45681e-07
4.74334e-08
-2.77151e-07
1.19232e-08
-1.77603e-07
-4.36748e-09
-9.2941e-08
2.28512e-08
-2.98742e-08
-3.35562e-07
7.92904e-07
1.08822e-08
7.38487e-07
-1.00727e-07
6.45167e-07
-1.9559e-07
5.31392e-07
-2.56282e-07
4.06728e-07
-2.80066e-07
2.8388e-07
-2.76267e-07
1.78243e-07
-2.39406e-07
9.13351e-08
-1.93459e-07
3.96867e-08
-1.26701e-07
1.37604e-08
-7.50243e-08
3.51881e-08
-5.82318e-08
-3.20149e-07
1.1474e-06
3.75642e-08
1.07529e-06
-9.01751e-09
9.53736e-07
-6.15989e-08
8.00968e-07
-8.97634e-08
6.29983e-07
-1.00153e-07
4.59008e-07
-1.04324e-07
3.09468e-07
-8.7221e-08
1.86617e-07
-8.27035e-08
1.08676e-07
-5.31079e-08
6.47871e-08
-5.47047e-08
7.20217e-08
-8.50946e-08
-2.88405e-07
1.02626e-06
1.02e-06
9.61524e-07
8.7393e-07
7.73869e-07
6.70467e-07
5.80241e-07
4.96916e-07
4.38377e-07
3.79813e-07
2.88405e-07
-5.45985e-07
-1.08528e-06
-5.7163e-07
-7.85803e-07
-5.32644e-07
-3.82509e-08
-4.49418e-07
3.8093e-07
-3.33933e-07
7.21749e-07
-1.84227e-07
1.0144e-06
4.96453e-09
1.25622e-06
2.36834e-07
1.42856e-06
5.1041e-07
1.50068e-06
8.09256e-07
1.41924e-06
1.09706e-06
1.13096e-06
5.6214e-07
-1.77841e-07
-8.94345e-07
-3.92707e-07
-5.72411e-07
-4.01496e-07
-3.10866e-08
-3.43846e-07
3.21319e-07
-2.47399e-07
6.22096e-07
-1.16469e-07
8.8067e-07
4.85558e-08
1.0879e-06
2.47412e-07
1.22773e-06
4.73771e-07
1.2708e-06
7.13829e-07
1.18353e-06
9.3128e-07
9.12423e-07
4.35476e-07
-1.55981e-07
-7.80106e-07
-2.90156e-07
-4.41757e-07
-3.02113e-07
-2.3285e-08
-2.58184e-07
2.72719e-07
-1.76689e-07
5.3457e-07
-6.27777e-08
7.60888e-07
8.08015e-08
9.38757e-07
2.50559e-07
1.05257e-06
4.39771e-07
1.07858e-06
6.31302e-07
9.84315e-07
7.99738e-07
7.47471e-07
3.4686e-07
-1.2095e-07
-6.29408e-07
-2.15603e-07
-3.46651e-07
-2.25425e-07
-1.25638e-08
-1.89583e-07
2.36253e-07
-1.19522e-07
4.64768e-07
-2.01775e-08
6.61223e-07
1.04609e-07
8.14655e-07
2.50012e-07
9.07672e-07
4.0739e-07
9.2075e-07
5.63711e-07
8.32009e-07
6.94819e-07
6.16497e-07
2.78441e-07
-9.08999e-08
-5.64086e-07
-1.58856e-07
-2.79706e-07
-1.66044e-07
-9.10216e-09
-1.34548e-07
2.02505e-07
-7.37766e-08
3.9936e-07
1.38558e-08
5.70972e-07
1.22256e-07
7.02815e-07
2.47416e-07
7.80346e-07
3.79457e-07
7.86264e-07
5.06714e-07
6.99918e-07
6.11288e-07
5.15154e-07
2.29504e-07
-6.65208e-08
-4.65409e-07
-1.16897e-07
-2.27612e-07
-1.20224e-07
-3.76458e-09
-9.12647e-08
1.74216e-07
-3.7077e-08
3.47527e-07
4.12843e-08
4.94017e-07
1.36314e-07
6.11224e-07
2.4558e-07
6.72477e-07
3.56469e-07
6.77095e-07
4.63413e-07
5.94921e-07
5.47562e-07
4.32438e-07
1.89871e-07
-5.30163e-08
-4.20847e-07
-8.67509e-08
-1.92114e-07
-8.67775e-08
-6.58724e-09
-5.7348e-08
1.46112e-07
-8.39736e-09
2.94889e-07
6.54069e-08
4.22985e-07
1.49439e-07
5.23336e-07
2.49514e-07
5.76769e-07
3.43555e-07
5.77422e-07
4.37375e-07
5.03795e-07
5.07684e-07
3.65235e-07
1.60548e-07
-4.57421e-08
-3.40685e-07
-6.84067e-08
-1.66529e-07
-6.44765e-08
-7.55508e-09
-3.25784e-08
1.15253e-07
1.53416e-08
2.51313e-07
8.94127e-08
3.50296e-07
1.69287e-07
4.50442e-07
2.67112e-07
4.79682e-07
3.52412e-07
4.97049e-07
4.41907e-07
4.14638e-07
5.05244e-07
3.06976e-07
1.36096e-07
-4.89904e-08
-3.01107e-07
-6.15257e-08
-1.41745e-07
-5.57037e-08
-2.68776e-08
-1.42579e-08
9.12659e-08
3.50769e-08
1.81061e-07
1.23564e-07
2.89021e-07
2.0404e-07
3.39456e-07
3.18812e-07
4.02101e-07
4.00403e-07
3.76168e-07
5.0369e-07
3.51259e-07
5.68215e-07
2.44969e-07
1.11327e-07
-5.89656e-08
-1.98434e-07
-7.33264e-08
-1.17942e-07
-5.99972e-08
-3.93654e-08
-8.9721e-09
4.82036e-08
6.0702e-08
1.11934e-07
1.69522e-07
1.9135e-07
2.80689e-07
2.29232e-07
4.20199e-07
2.78963e-07
5.3175e-07
2.58579e-07
6.59786e-07
2.61801e-07
7.46009e-07
1.91666e-07
8.6877e-08
-7.6135e-08
-3.60882e-08
-1.02963e-07
-5.92373e-08
-8.84993e-08
-4.4636e-08
-2.27087e-08
1.06859e-08
7.44781e-08
2.23319e-08
2.21716e-07
8.37658e-08
3.79864e-07
8.13279e-08
5.69829e-07
1.39141e-07
7.32999e-07
9.86839e-08
9.18165e-07
1.95836e-07
1.04924e-06
1.60437e-07
7.47582e-08
-2.4064e-08
-8.16431e-08
-1.19117e-07
-1.07514e-07
-7.52168e-08
9.74376e-09
1.03985e-07
2.41897e-07
3.67753e-07
5.87363e-07
7.56965e-07
)
;

boundaryField
{
    rotor
    {
        type            calculated;
        value           uniform 0;
    }
    stator
    {
        type            calculated;
        value           uniform 0;
    }
    front
    {
        type            empty;
        value           nonuniform 0();
    }
    back
    {
        type            empty;
        value           nonuniform 0();
    }
    procBoundary2to0
    {
        type            processor;
        value           nonuniform List<scalar> 
20
(
-1.15188e-05
-2.00069e-05
-1.99105e-05
-1.91826e-05
-3.28355e-06
-2.50984e-06
-1.95719e-06
-1.56001e-06
-1.27182e-06
-1.05676e-06
-8.94313e-07
-7.6833e-07
-6.7084e-07
-5.96653e-07
-5.50334e-07
-5.44914e-07
-6.13001e-07
-8.10038e-07
-1.16934e-06
-9.83673e-07
)
;
    }
    procBoundary2to3
    {
        type            processor;
        value           nonuniform List<scalar> 
20
(
1.11409e-05
1.99479e-05
1.9916e-05
1.92048e-05
3.30671e-06
2.531e-06
1.97396e-06
1.57286e-06
1.28026e-06
1.06167e-06
8.95809e-07
7.67042e-07
6.66958e-07
5.90793e-07
5.42276e-07
5.34341e-07
5.96214e-07
7.79185e-07
1.10059e-06
8.37494e-07
)
;
    }
}


// ************************************************************************* //
