/*--------------------------------*- C++ -*----------------------------------*\
  =========                 |
  \\      /  F ield         | OpenFOAM: The Open Source CFD Toolbox
   \\    /   O peration     | Website:  https://openfoam.org
    \\  /    A nd           | Version:  6
     \\/     M anipulation  |
\*---------------------------------------------------------------------------*/
FoamFile
{
    version     2.0;
    format      ascii;
    class       volScalarField;
    location    "1500";
    object      k;
}
// * * * * * * * * * * * * * * * * * * * * * * * * * * * * * * * * * * * * * //

dimensions      [0 2 -2 0 0 0 0];

internalField   nonuniform List<scalar> 
768
(
0.615188
0.604528
0.627928
0.652556
0.637465
0.655354
0.652107
0.657406
0.634665
0.639505
0.660839
0.669342
0.458737
0.779073
0.904094
0.944403
0.955815
0.962026
0.963938
0.965012
0.963061
0.963305
0.96393
0.964903
0.456799
0.821768
0.94126
0.97141
0.98
0.982983
0.983908
0.984259
0.984132
0.984186
0.984171
0.984215
0.463222
0.83426
0.949439
0.97555
0.982842
0.985204
0.985918
0.986187
0.986233
0.98627
0.98623
0.98624
0.467369
0.842132
0.953487
0.976785
0.983288
0.985082
0.985779
0.985842
0.986028
0.985915
0.986027
0.985926
0.486974
0.854269
0.957473
0.977992
0.982957
0.984721
0.984913
0.985234
0.985007
0.985196
0.984988
0.985147
0.488892
0.863844
0.961876
0.978814
0.982963
0.983954
0.984293
0.984207
0.984149
0.984039
0.984015
0.983861
0.511661
0.877097
0.967383
0.980014
0.982683
0.983284
0.983385
0.983313
0.983141
0.983051
0.982895
0.982695
0.514385
0.890319
0.97313
0.981485
0.982566
0.982622
0.982505
0.982347
0.98218
0.982103
0.981902
0.981683
0.519214
0.897345
0.979563
0.98298
0.982522
0.982082
0.981692
0.981458
0.981317
0.981164
0.981023
0.980999
0.538819
0.904319
0.984055
0.984259
0.9824
0.981389
0.980728
0.980347
0.980128
0.979982
0.979929
0.980055
0.718196
0.95169
0.989409
0.984698
0.981834
0.980532
0.979807
0.979327
0.979201
0.979099
0.978991
0.979077
0.650015
0.64795
0.634776
0.64484
0.658413
0.675009
0.658365
0.646263
0.624275
0.58563
0.519383
0.400628
0.963708
0.96357
0.963247
0.964789
0.966061
0.967898
0.967573
0.965231
0.952887
0.904959
0.73946
0.458141
0.984036
0.984039
0.984019
0.984203
0.98435
0.984602
0.984555
0.983775
0.978875
0.953454
0.834385
0.476959
0.986155
0.986185
0.986187
0.986228
0.986257
0.986316
0.986289
0.985816
0.982457
0.963045
0.856385
0.480969
0.986006
0.98588
0.985936
0.985838
0.985986
0.98595
0.986118
0.985659
0.98316
0.966596
0.866245
0.489047
0.984915
0.985074
0.984856
0.985012
0.984842
0.985064
0.984984
0.984995
0.982874
0.969132
0.877778
0.486322
0.983868
0.983755
0.98382
0.983736
0.983762
0.983777
0.984094
0.98404
0.982833
0.9724
0.884794
0.501052
0.982627
0.98264
0.982583
0.982544
0.98257
0.98277
0.983042
0.983402
0.983087
0.975669
0.904472
0.513523
0.981665
0.981588
0.981501
0.981513
0.981623
0.981837
0.982252
0.982784
0.983445
0.980479
0.913774
0.546338
0.980933
0.980835
0.980774
0.980824
0.980899
0.981048
0.981546
0.982338
0.98394
0.984123
0.936303
0.567146
0.97997
0.97994
0.980095
0.980106
0.980086
0.980244
0.980755
0.981717
0.984078
0.989203
0.957978
0.602655
0.979193
0.979234
0.979304
0.979198
0.979189
0.979444
0.97992
0.981041
0.984056
0.993839
1.01619
0.686113
0.97221
1.00443
0.992852
0.984076
0.980731
0.979476
0.978881
0.978503
0.978351
0.978378
0.978353
0.978332
1.01245
0.999852
0.988133
0.981843
0.979442
0.978358
0.977907
0.97766
0.977695
0.977756
0.977676
0.97766
0.998176
0.989644
0.982937
0.979655
0.978119
0.977253
0.977044
0.97696
0.976965
0.976899
0.976878
0.977114
0.986325
0.982559
0.979446
0.977791
0.976873
0.97628
0.976227
0.976228
0.97613
0.976151
0.976139
0.976209
0.978436
0.978478
0.97853
0.978526
0.978499
0.978613
0.979044
0.980016
0.98277
0.992388
1.02385
0.935387
0.977702
0.977727
0.977704
0.977837
0.977935
0.977931
0.978258
0.978954
0.980799
0.986423
1.00376
1.02212
0.977032
0.976953
0.976972
0.977118
0.977247
0.977302
0.977693
0.978125
0.979054
0.981859
0.98913
0.999784
0.97629
0.976436
0.976502
0.976417
0.976415
0.976584
0.976906
0.977237
0.977656
0.978855
0.981801
0.985968
0.980222
0.978421
0.977005
0.976269
0.975805
0.975517
0.975437
0.975438
0.975443
0.975414
0.975085
0.974043
0.977297
0.976251
0.975601
0.97521
0.974982
0.974842
0.974799
0.974801
0.974797
0.974586
0.972976
0.967815
0.975763
0.975017
0.974629
0.974462
0.974346
0.974272
0.974253
0.974259
0.974198
0.973347
0.967261
0.946399
0.974841
0.974197
0.973969
0.973867
0.973804
0.973759
0.973757
0.97376
0.973557
0.971206
0.953785
0.873888
0.973933
0.974948
0.975415
0.975546
0.975629
0.975742
0.97587
0.976044
0.976364
0.97701
0.978176
0.979769
0.967243
0.972248
0.974323
0.974835
0.974979
0.975046
0.975127
0.97525
0.975443
0.975749
0.976229
0.976839
0.945009
0.965551
0.972588
0.974099
0.974382
0.97445
0.974504
0.974594
0.974698
0.97485
0.975039
0.975312
0.870757
0.950832
0.969837
0.973292
0.973846
0.973945
0.973985
0.974044
0.974092
0.974156
0.974222
0.974393
0.974191
0.973606
0.973429
0.973378
0.973339
0.973316
0.97332
0.973311
0.972912
0.968537
0.930298
0.647414
0.973673
0.973122
0.972998
0.972956
0.972925
0.972909
0.972916
0.972899
0.972395
0.966896
0.916882
0.546313
0.973239
0.972715
0.972604
0.972579
0.972556
0.972547
0.97255
0.972534
0.972016
0.966321
0.914359
0.536004
0.972858
0.972347
0.972261
0.972232
0.972222
0.972214
0.972214
0.972198
0.971719
0.966292
0.915933
0.538869
0.972516
0.972023
0.971944
0.971933
0.971912
0.971908
0.971901
0.971888
0.97146
0.966447
0.918666
0.543936
0.972127
0.971627
0.971562
0.971539
0.971533
0.971528
0.971521
0.971507
0.97113
0.966551
0.921412
0.549945
0.971144
0.970579
0.970493
0.970458
0.970471
0.970454
0.970466
0.970443
0.970118
0.96588
0.923036
0.55619
0.967021
0.96618
0.966033
0.965969
0.965998
0.965969
0.966001
0.965975
0.96568
0.961559
0.919859
0.559976
0.951197
0.949676
0.949395
0.94915
0.949304
0.949147
0.949326
0.949213
0.948999
0.944538
0.901425
0.553054
0.899378
0.896679
0.895959
0.895572
0.895521
0.89544
0.895635
0.895621
0.895422
0.890537
0.843559
0.51942
0.741803
0.737116
0.735827
0.73512
0.734472
0.734373
0.734718
0.734767
0.734704
0.730426
0.685605
0.439341
0.358247
0.356433
0.355466
0.354724
0.353471
0.3529
0.352517
0.351806
0.351302
0.35018
0.33722
0.268467
0.647302
0.927924
0.966682
0.972489
0.973343
0.973466
0.973503
0.973545
0.973569
0.973591
0.973619
0.973728
0.547708
0.914258
0.964709
0.971884
0.972913
0.973054
0.973081
0.973109
0.97311
0.973113
0.973112
0.973231
0.536937
0.911169
0.964034
0.971478
0.972518
0.972663
0.972681
0.972705
0.972706
0.972703
0.972708
0.972792
0.539381
0.912289
0.964046
0.971204
0.972182
0.972315
0.972329
0.97234
0.972334
0.97233
0.972321
0.97243
0.544472
0.914765
0.964314
0.970986
0.971858
0.971979
0.971993
0.971998
0.972007
0.971991
0.971996
0.972071
0.549959
0.917402
0.964559
0.970704
0.971486
0.971588
0.9716
0.971596
0.971597
0.971589
0.971576
0.971684
0.555574
0.919084
0.964028
0.969737
0.970431
0.970532
0.970533
0.970538
0.970539
0.970528
0.970533
0.970601
0.559207
0.916231
0.959853
0.965362
0.966017
0.966126
0.966117
0.966137
0.966124
0.96613
0.966116
0.966201
0.554218
0.898641
0.942997
0.948789
0.949416
0.94963
0.949558
0.949659
0.949607
0.94967
0.94961
0.949709
0.523326
0.842311
0.88945
0.895656
0.896366
0.896659
0.89666
0.896743
0.896727
0.896862
0.896859
0.896858
0.443807
0.686991
0.730373
0.735892
0.73661
0.737081
0.737413
0.737564
0.737626
0.738219
0.738251
0.737731
0.26863
0.336981
0.349428
0.350916
0.351635
0.352204
0.353501
0.354115
0.355296
0.357234
0.357546
0.356618
)
;

boundaryField
{
    rotor
    {
        type            kqRWallFunction;
        value           nonuniform List<scalar> 
48
(
0.615188
0.604528
0.627928
0.652556
0.637465
0.655354
0.652107
0.657406
0.634665
0.639505
0.660839
0.669342
0.650015
0.64795
0.634776
0.64484
0.658413
0.675009
0.658365
0.646263
0.624275
0.58563
0.519383
0.400628
0.615188
0.458737
0.456799
0.463222
0.467369
0.486974
0.488892
0.511661
0.514385
0.519214
0.538819
0.718196
0.400628
0.458141
0.476959
0.480969
0.489047
0.486322
0.501052
0.513523
0.546338
0.567146
0.602655
0.686113
)
;
    }
    stator
    {
        type            kqRWallFunction;
        value           nonuniform List<scalar> 
48
(
0.358247
0.356433
0.355466
0.354724
0.353471
0.3529
0.352517
0.351806
0.351302
0.35018
0.33722
0.268467
0.26863
0.336981
0.349428
0.350916
0.351635
0.352204
0.353501
0.354115
0.355296
0.357234
0.357546
0.356618
0.647302
0.547708
0.536937
0.539381
0.544472
0.549959
0.555574
0.559207
0.554218
0.523326
0.443807
0.26863
0.647414
0.546313
0.536004
0.538869
0.543936
0.549945
0.55619
0.559976
0.553054
0.51942
0.439341
0.268467
)
;
    }
    front
    {
        type            empty;
    }
    back
    {
        type            empty;
    }
    procBoundary0to1
    {
        type            processor;
        value           nonuniform List<scalar> 
20
(
0.934786
1.0237
1.00038
0.986176
0.979793
0.976767
0.975219
0.974287
0.973643
0.973137
0.972717
0.972347
0.972008
0.971607
0.970543
0.966136
0.949613
0.896605
0.737165
0.355712
)
;
    }
    procBoundary0to2
    {
        type            processor;
        value           nonuniform List<scalar> 
20
(
0.969716
1.01075
0.997356
0.985993
0.980113
0.977295
0.975802
0.974891
0.974253
0.973737
0.973316
0.972924
0.972593
0.972182
0.971211
0.967082
0.951295
0.899643
0.742541
0.359266
)
;
    }
}


// ************************************************************************* //
