/*--------------------------------*- C++ -*----------------------------------*\
  =========                 |
  \\      /  F ield         | OpenFOAM: The Open Source CFD Toolbox
   \\    /   O peration     | Website:  https://openfoam.org
    \\  /    A nd           | Version:  6
     \\/     M anipulation  |
\*---------------------------------------------------------------------------*/
FoamFile
{
    version     2.0;
    format      ascii;
    class       volScalarField;
    location    "1500";
    object      p;
}
// * * * * * * * * * * * * * * * * * * * * * * * * * * * * * * * * * * * * * //

dimensions      [0 2 -2 0 0 0 0];

internalField   nonuniform List<scalar> 
768
(
0.0996066
0.227786
0.514586
0.85461
1.24502
1.6435
2.06193
2.47314
2.89701
3.30779
3.7226
4.12137
0.0797555
0.322548
0.550141
0.837789
1.22371
1.64452
2.07849
2.50474
2.93164
3.34831
3.7633
4.16698
0.0231689
0.330395
0.547515
0.799281
1.18084
1.62425
2.08106
2.52765
2.96563
3.39118
3.80991
4.21884
-0.0136988
0.324448
0.547967
0.807207
1.20407
1.66619
2.13836
2.59605
3.03941
3.46675
3.88418
4.29114
-0.0222016
0.340438
0.576188
0.862446
1.27999
1.76029
2.23495
2.69687
3.13349
3.55791
3.96407
4.36544
-0.00648493
0.382991
0.641257
0.953898
1.40133
1.88144
2.36174
2.80945
3.24275
3.6484
4.04806
4.42896
0.0440172
0.467949
0.75051
1.09883
1.55714
2.04289
2.5069
2.94536
3.35619
3.74939
4.12527
4.49319
0.115201
0.579298
0.903578
1.29148
1.76249
2.23675
2.68203
3.0961
3.48387
3.8523
4.20586
4.54988
0.202844
0.727064
1.11224
1.53666
2.00945
2.46251
2.87829
3.26103
3.61881
3.95851
4.28508
4.60291
0.318194
0.938248
1.38473
1.84005
2.297
2.71411
3.08987
3.43427
3.75721
4.06481
4.36208
4.65181
0.551194
1.27615
1.76697
2.20925
2.61983
2.98293
3.30851
3.60944
3.89427
4.16853
4.43529
4.6965
1.08306
1.84388
2.28609
2.64481
2.9674
3.25786
3.52609
3.78061
4.02662
4.26739
4.504
4.73712
4.52499
4.91492
5.30652
5.68289
6.06078
6.42426
6.78734
7.13667
7.47038
7.72143
7.92514
8.11612
4.56912
4.96208
5.3535
5.73541
6.1167
6.49181
6.86885
7.2398
7.58191
7.8376
8.05484
8.26493
4.62354
5.0216
5.41792
5.80987
6.20408
6.59997
7.00387
7.40718
7.7699
8.01828
8.238
8.51888
4.6934
5.09037
5.48693
5.88307
6.28417
6.69268
7.11359
7.53904
7.92747
8.19433
8.4365
8.7499
4.75576
5.14777
5.53511
5.92922
6.32548
6.73729
7.15833
7.59823
8.00756
8.30801
8.57066
8.92983
4.81231
5.18488
5.56629
5.94297
6.3354
6.73101
7.15367
7.58623
8.01392
8.33847
8.60174
9.01315
4.85294
5.21281
5.57123
5.93551
6.30486
6.68957
7.09064
7.51811
7.94264
8.27856
8.56199
8.9921
4.88808
5.22408
5.5605
5.89938
6.24572
6.60367
6.98281
7.38552
7.80014
8.15808
8.43696
8.89179
4.91529
5.22515
5.53372
5.84415
6.15948
6.48662
6.83231
7.20523
7.59939
7.95137
8.2631
8.71716
4.93666
5.21794
5.4965
5.77492
6.056
6.34668
6.65303
6.98492
7.34379
7.69617
7.99068
8.46525
4.95318
5.20522
5.45307
5.69804
5.94364
6.19433
6.45663
6.73882
7.04699
7.35535
7.64031
8.05599
4.96609
5.18937
5.40689
5.61917
5.82937
6.0399
6.25557
6.47955
6.71733
6.96173
7.15868
7.45269
2.91457
2.71978
2.90866
3.10161
3.31025
3.52189
3.73242
3.94175
4.15071
4.35942
4.56747
4.77368
4.04591
3.47975
3.42712
3.49574
3.61468
3.76026
3.92025
4.08919
4.26443
4.44384
4.62536
4.80668
4.49951
3.97581
3.823
3.81238
3.87002
3.966
4.08539
4.22037
4.36636
4.52001
4.6779
4.83645
4.7102
4.29142
4.11218
4.06164
4.08001
4.14044
4.22843
4.33563
4.45694
4.5885
4.72554
4.86353
4.97645
5.1725
5.36097
5.54281
5.71947
5.89258
6.06269
6.22894
6.38586
6.51285
6.53075
6.16861
4.98537
5.15581
5.31748
5.4715
5.61817
5.75809
5.88916
6.00729
6.10201
6.1539
6.09963
5.79441
4.994
5.14052
5.27796
5.40717
5.52813
5.63993
5.73987
5.82202
5.87577
5.88244
5.80248
5.5081
5.00357
5.12743
5.24295
5.35059
5.44967
5.53834
5.61385
5.66992
5.69723
5.68014
5.58547
5.32384
4.82413
4.49767
4.32615
4.25708
4.25181
4.28776
4.35207
4.43701
4.53789
4.65083
4.77041
4.88943
4.88878
4.63612
4.48382
4.41154
4.39329
4.41266
4.45904
4.52603
4.60979
4.70734
4.81215
4.91195
4.93276
4.73429
4.60365
4.53349
4.5085
4.51654
4.54937
4.60184
4.67113
4.75531
4.84613
4.92874
4.96512
4.80695
4.69544
4.63052
4.60251
4.60286
4.62527
4.66568
4.72194
4.7925
4.86587
4.92789
5.01605
5.11803
5.21418
5.30372
5.38445
5.45453
5.51091
5.54811
5.55763
5.52628
5.42941
5.20766
5.03318
5.11283
5.1918
5.26599
5.33138
5.38629
5.42775
5.45102
5.44847
5.40924
5.31414
5.12931
5.05207
5.11193
5.175
5.23568
5.28814
5.33054
5.36037
5.37322
5.36267
5.3197
5.23086
5.07765
5.07575
5.11942
5.16471
5.21199
5.25282
5.28467
5.3052
5.31037
5.29473
5.25107
5.17026
5.04276
4.99017
4.86208
4.76733
4.70833
4.67938
4.67443
4.68874
4.71895
4.76313
4.81847
4.86944
4.89913
5.0102
4.90512
4.82431
4.77134
4.74263
4.73408
4.74196
4.76358
4.79687
4.83819
4.872
4.89092
5.02653
4.9392
4.87013
4.82276
4.79503
4.7839
4.7867
4.80112
4.82515
4.85515
4.87827
4.89019
5.04009
4.96689
4.90748
4.86526
4.83866
4.82582
4.82451
4.83297
4.84918
4.86997
4.88559
4.89284
5.05141
4.98946
4.93832
4.90067
4.87549
4.86138
4.85673
4.86023
4.86993
4.88324
4.89265
4.8971
5.06098
5.00836
4.96416
4.93078
4.90666
4.89181
4.88429
4.8837
4.88795
4.89504
4.89942
4.90156
5.06899
5.02411
4.98608
4.9566
4.9333
4.91811
4.90792
4.90412
4.90363
4.90577
4.90571
4.90623
5.07553
5.03714
5.00447
4.97816
4.95575
4.94021
4.92791
4.92141
4.91713
4.91527
4.91166
4.91056
5.08031
5.04679
5.01805
4.99527
4.97209
4.95749
4.94256
4.93491
4.9273
4.92308
4.91697
4.91453
5.08301
5.05228
5.0265
5.00394
4.98239
4.96635
4.95168
4.94209
4.93374
4.92791
4.92133
4.91779
5.08383
5.05446
5.02927
5.0067
4.98565
4.96903
4.95456
4.94431
4.93588
4.92963
4.9235
4.91991
5.08374
5.0548
5.02937
5.00648
4.98574
4.96883
4.95468
4.94424
4.93601
4.92966
4.92391
4.92067
5.11541
5.13422
5.16033
5.19411
5.22446
5.24748
5.26051
5.25988
5.2409
5.19808
5.12523
5.01865
5.13023
5.14358
5.15721
5.17993
5.20127
5.21687
5.22387
5.21891
5.19802
5.15689
5.09172
5.001
5.13678
5.14528
5.15336
5.16822
5.18247
5.19195
5.19409
5.18573
5.16355
5.1244
5.06567
4.98807
5.13956
5.14483
5.14929
5.15827
5.16674
5.17126
5.16948
5.15857
5.1358
5.09867
5.04578
4.97779
5.14042
5.14353
5.14531
5.14976
5.15381
5.1542
5.14927
5.1362
5.11295
5.07778
5.02944
4.96997
5.14041
5.14207
5.14149
5.14245
5.14277
5.13988
5.13236
5.11759
5.09431
5.06072
5.01663
4.96317
5.13974
5.14032
5.13801
5.13609
5.13372
5.1279
5.11837
5.10198
5.07864
5.04646
5.00553
4.95793
5.13878
5.1385
5.13481
5.13074
5.12621
5.11807
5.1069
5.08921
5.06588
5.03486
4.99683
4.95336
5.13765
5.13654
5.13227
5.12667
5.12102
5.11082
5.09886
5.07965
5.0567
5.02616
4.99038
4.94993
5.13651
5.13488
5.13048
5.12477
5.11809
5.1076
5.09443
5.0752
5.05168
5.02189
4.98673
4.94804
5.13563
5.13381
5.12974
5.12427
5.11725
5.10685
5.09314
5.07398
5.05017
5.02041
4.98552
4.94722
5.13515
5.13343
5.12955
5.12427
5.11715
5.1069
5.09296
5.07393
5.04991
5.02012
4.98533
4.94707
)
;

boundaryField
{
    rotor
    {
        type            zeroGradient;
    }
    stator
    {
        type            zeroGradient;
    }
    front
    {
        type            empty;
    }
    back
    {
        type            empty;
    }
    procBoundary0to1
    {
        type            processor;
        value           nonuniform List<scalar> 
20
(
6.12145
5.76619
5.5043
5.34594
5.25254
5.19394
5.15884
5.1385
5.12662
5.12002
5.11638
5.11467
5.11391
5.11373
5.11372
5.11368
5.11371
5.11372
5.11353
5.1132
)
;
    }
    procBoundary0to2
    {
        type            processor;
        value           nonuniform List<scalar> 
20
(
3.0664
4.12888
4.53719
4.71186
4.79671
4.83726
4.86095
4.87601
4.88586
4.89281
4.89744
4.90098
4.90313
4.90509
4.90611
4.90699
4.9074
4.9073
4.90726
4.90728
)
;
    }
}


// ************************************************************************* //
