/*--------------------------------*- C++ -*----------------------------------*\
  =========                 |
  \\      /  F ield         | OpenFOAM: The Open Source CFD Toolbox
   \\    /   O peration     | Website:  https://openfoam.org
    \\  /    A nd           | Version:  6
     \\/     M anipulation  |
\*---------------------------------------------------------------------------*/
FoamFile
{
    version     2.0;
    format      ascii;
    class       surfaceScalarField;
    location    "1500";
    object      phi;
}
// * * * * * * * * * * * * * * * * * * * * * * * * * * * * * * * * * * * * * //

dimensions      [0 3 -1 0 0 0 0];

internalField   nonuniform List<scalar> 
1468
(
-1.25368e-05
3.3055e-07
-1.23078e-05
-1.19045e-06
-1.13237e-05
-4.49229e-07
-1.23277e-05
2.32264e-07
-1.22166e-05
3.70013e-07
-1.30986e-05
2.03498e-07
-1.27045e-05
7.8894e-08
-1.32419e-05
-5.59537e-08
-1.2669e-05
-8.64135e-08
-1.30249e-05
-1.41286e-07
-1.23852e-05
-1.32767e-07
-1.71527e-07
-1.26117e-05
-2.17824e-06
2.16748e-06
-4.07583e-06
4.39239e-07
-4.48734e-06
-2.36783e-08
-4.29487e-06
-6.73382e-08
-3.80352e-06
-9.23464e-08
-3.5174e-06
-1.64028e-07
-3.17949e-06
-2.22867e-07
-3.03208e-06
-2.68075e-07
-2.79931e-06
-2.74342e-07
-2.71916e-06
-2.67388e-07
-2.55756e-06
-2.39757e-07
-2.16938e-07
-2.53772e-06
-8.84534e-07
2.92555e-06
-7.26479e-07
1.86004e-07
-3.93353e-07
-3.51869e-07
-4.38086e-08
-4.44643e-07
3.39432e-07
-4.64972e-07
6.37036e-07
-4.79613e-07
9.06998e-07
-4.79882e-07
1.09089e-06
-4.64957e-07
1.26057e-06
-4.28754e-07
1.36452e-06
-3.7925e-07
1.46171e-06
-3.18311e-07
-2.54504e-07
1.49829e-06
-3.14768e-07
2.94945e-06
4.77921e-07
-6.81168e-07
1.04114e-06
-9.19168e-07
1.45833e-06
-8.76713e-07
1.83126e-06
-8.18066e-07
2.13364e-06
-7.87927e-07
2.40194e-06
-7.24223e-07
2.60198e-06
-6.69465e-07
2.77338e-06
-5.76685e-07
2.88558e-06
-4.95689e-07
2.97572e-06
-3.84748e-07
-2.93186e-07
3.01236e-06
5.41812e-09
2.63631e-06
1.05437e-06
-1.84941e-06
1.72145e-06
-1.67256e-06
2.2484e-06
-1.38467e-06
2.62879e-06
-1.2597e-06
3.00464e-06
-1.11148e-06
3.26204e-06
-1.0247e-06
3.5209e-06
-8.70779e-07
3.67026e-06
-7.64414e-07
3.82796e-06
-5.95658e-07
3.8854e-06
-4.79002e-07
-3.05138e-07
3.95777e-06
2.71208e-08
1.24413e-06
1.41789e-06
-3.61125e-06
2.31448e-06
-2.65392e-06
2.86173e-06
-2.09117e-06
3.38983e-06
-1.75335e-06
3.72608e-06
-1.56185e-06
4.0927e-06
-1.33272e-06
4.29161e-06
-1.15964e-06
4.5296e-06
-9.32346e-07
4.61631e-06
-7.59271e-07
4.75349e-06
-5.35177e-07
-3.65521e-07
4.74978e-06
3.93568e-07
3.58996e-07
1.87684e-06
-5.3835e-06
2.90258e-06
-3.80585e-06
3.61415e-06
-2.89136e-06
4.13748e-06
-2.40104e-06
4.5802e-06
-2.03849e-06
4.90132e-06
-1.73433e-06
5.17239e-06
-1.43568e-06
5.34891e-06
-1.16246e-06
5.4978e-06
-8.90303e-07
5.57087e-06
-6.39763e-07
-3.84798e-07
5.62635e-06
3.50844e-07
-9.6312e-07
2.34195e-06
-7.50454e-06
3.57425e-06
-5.23889e-06
4.42604e-06
-3.82862e-06
5.03498e-06
-3.08079e-06
5.49003e-06
-2.55778e-06
5.82792e-06
-2.11929e-06
6.07959e-06
-1.72339e-06
6.25712e-06
-1.3637e-06
6.38447e-06
-1.02916e-06
6.46228e-06
-7.1716e-07
-4.17141e-07
6.50261e-06
2.99244e-07
-9.77718e-07
2.76786e-06
-1.01029e-05
4.40765e-06
-6.84029e-06
5.38698e-06
-4.87859e-06
6.04703e-06
-3.79802e-06
6.50333e-06
-3.06548e-06
6.82366e-06
-2.48046e-06
7.04718e-06
-1.97972e-06
7.20251e-06
-1.54069e-06
7.30922e-06
-1.14452e-06
7.37588e-06
-7.83211e-07
-4.39742e-07
7.41133e-06
5.28566e-07
-1.42734e-06
3.61948e-06
-1.30484e-05
5.45513e-06
-8.78099e-06
6.54455e-06
-5.96553e-06
7.19689e-06
-4.47353e-06
7.609e-06
-3.50609e-06
7.87797e-06
-2.77405e-06
8.05358e-06
-2.17961e-06
8.17349e-06
-1.6717e-06
8.25125e-06
-1.22918e-06
8.30309e-06
-8.27291e-07
-4.52649e-07
8.33172e-06
2.90938e-06
-3.73392e-06
5.41807e-06
-1.54618e-05
7.0721e-06
-1.02759e-05
7.97596e-06
-6.86971e-06
8.48894e-06
-4.99778e-06
8.78858e-06
-3.82048e-06
8.96729e-06
-2.97471e-06
9.07917e-06
-2.30914e-06
9.14976e-06
-1.75677e-06
9.19688e-06
-1.28021e-06
9.2285e-06
-8.53659e-07
-4.58132e-07
9.25109e-06
9.35169e-06
-1.29862e-05
9.20605e-06
-1.50874e-05
9.41175e-06
-1.04912e-05
9.70532e-06
-7.10987e-06
9.89423e-06
-5.15923e-06
1.00032e-05
-3.92236e-06
1.00649e-05
-3.03878e-06
1.00996e-05
-2.34921e-06
1.01183e-05
-1.78143e-06
1.01315e-05
-1.29149e-06
1.01426e-05
-8.56174e-07
1.01586e-05
-4.52441e-07
-1.19344e-05
-1.5458e-07
-1.20741e-05
-1.79029e-07
-1.13956e-05
-1.68268e-07
-1.14758e-05
-2.15412e-07
-1.07905e-05
-2.46582e-07
-1.07048e-05
-3.58185e-07
-9.92088e-06
-4.91263e-07
-9.27793e-06
-6.71334e-07
-8.37619e-06
-6.80806e-07
-7.25532e-06
-8.89771e-07
-4.24886e-06
-2.64602e-06
-4.15259e-06
-2.44387e-06
-1.83853e-07
-2.47445e-06
-1.5804e-07
-2.44321e-06
-1.31616e-07
-2.54008e-06
-1.25313e-07
-2.60305e-06
-1.32199e-07
-2.80313e-06
-1.69859e-07
-3.03339e-06
-2.33642e-07
-3.36704e-06
-3.31731e-07
-3.50967e-06
-4.88995e-07
-3.37586e-06
-9.36784e-07
-3.36011e-06
-2.48339e-06
-7.45463e-06
1.52626e-06
-1.88263e-07
1.49896e-06
-1.25546e-07
1.46297e-06
-6.67628e-08
1.36362e-06
-2.04425e-08
1.24089e-06
1.53643e-08
1.04266e-06
3.07307e-08
7.94157e-07
2.70177e-08
4.73892e-07
-6.70044e-09
1.25101e-07
-1.19165e-07
-2.28967e-07
-5.16472e-07
-4.03494e-07
-2.19726e-06
-7.80253e-06
3.02889e-06
-1.78841e-07
2.99686e-06
-8.80327e-08
2.94082e-06
1.78374e-08
2.83325e-06
9.94353e-08
2.68685e-06
1.88514e-07
2.47851e-06
2.48936e-07
2.21983e-06
3.13058e-07
1.89e-06
3.32959e-07
1.50101e-06
3.12322e-07
9.46194e-07
7.37573e-08
2.2161e-08
-1.18565e-06
-7.49664e-06
3.93645e-06
-1.86528e-07
3.92923e-06
-1.70976e-08
3.83556e-06
1.00652e-07
3.742e-06
2.62853e-07
3.55213e-06
3.76646e-07
3.35177e-06
5.31281e-07
3.02672e-06
6.28733e-07
2.67207e-06
7.60483e-07
2.16424e-06
8.40519e-07
1.40752e-06
8.98099e-07
1.45715e-07
5.67631e-07
-7.04712e-06
4.79887e-06
-1.46383e-07
4.72006e-06
2.3247e-08
4.68726e-06
2.41066e-07
4.52561e-06
4.17374e-07
4.38927e-06
6.41183e-07
4.10299e-06
8.23304e-07
3.80745e-06
1.05083e-06
3.35083e-06
1.24265e-06
2.80192e-06
1.50758e-06
2.05157e-06
1.92494e-06
7.7554e-07
2.13511e-06
-5.04519e-06
5.61655e-06
-1.44619e-07
5.59462e-06
1.08934e-07
5.51162e-06
3.56599e-07
5.40459e-06
6.27906e-07
5.21518e-06
8.97744e-07
4.9735e-06
1.19665e-06
4.60755e-06
1.49262e-06
4.15905e-06
1.84212e-06
3.56589e-06
2.26317e-06
2.60664e-06
2.91997e-06
1.95119e-06
4.09385e-06
-2.88557e-06
6.50665e-06
-1.22374e-07
6.47834e-06
1.75206e-07
6.41934e-06
4.88412e-07
6.3095e-06
8.15117e-07
6.14768e-06
1.1716e-06
5.89422e-06
1.54803e-06
5.55232e-06
1.96955e-06
5.06584e-06
2.43632e-06
4.36458e-06
3.04829e-06
3.52132e-06
4.18862e-06
2.0215e-06
5.51128e-06
1.61084e-07
7.41789e-06
-1.04483e-07
7.40385e-06
2.38911e-07
7.3571e-06
5.98859e-07
7.27428e-06
9.84992e-07
7.12961e-06
1.40639e-06
6.91123e-06
1.87101e-06
6.5807e-06
2.39874e-06
6.10358e-06
3.02366e-06
5.42781e-06
3.8593e-06
4.22252e-06
5.23777e-06
2.96101e-06
7.67572e-06
2.68764e-06
8.34472e-06
-8.61933e-08
8.34413e-06
2.89549e-07
8.31902e-06
6.84692e-07
8.26559e-06
1.11587e-06
8.15686e-06
1.58657e-06
7.98737e-06
2.12554e-06
7.71234e-06
2.74819e-06
7.28758e-06
3.51555e-06
6.58186e-06
4.56985e-06
5.60105e-06
6.50073e-06
3.59602e-06
9.10124e-06
6.44703e-06
9.27054e-06
-7.28549e-08
9.28391e-06
3.23181e-07
9.28546e-06
7.42037e-07
9.26217e-06
1.19823e-06
9.20568e-06
1.70309e-06
9.09921e-06
2.28519e-06
8.9177e-06
2.97758e-06
8.6118e-06
3.86697e-06
8.11203e-06
5.1162e-06
7.174e-06
7.17572e-06
5.57051e-06
1.08757e-05
1.16285e-05
1.01845e-05
-6.34651e-08
1.02123e-05
3.37709e-07
1.02385e-05
7.6707e-07
1.02486e-05
1.22875e-06
1.0246e-05
1.74582e-06
1.02175e-05
2.33558e-06
1.01676e-05
3.05236e-06
1.00605e-05
3.968e-06
9.83786e-06
5.28067e-06
9.51649e-06
7.50301e-06
8.55148e-06
1.14279e-05
2.0022e-05
1.74447e-05
-7.43075e-06
1.38135e-05
-1.13354e-05
1.21304e-05
-8.63863e-06
1.15162e-05
-6.44457e-06
1.12918e-05
-4.90116e-06
1.11909e-05
-3.80826e-06
1.1134e-05
-2.97883e-06
1.10935e-05
-2.3145e-06
1.10643e-05
-1.75699e-06
1.10446e-05
-1.2733e-06
1.10374e-05
-8.405e-07
-4.42315e-07
1.10456e-05
1.92042e-05
-4.0418e-06
1.5637e-05
-7.60833e-06
1.38242e-05
-6.78699e-06
1.29618e-05
-5.49511e-06
1.25279e-05
-4.41192e-06
1.22914e-05
-3.53427e-06
1.21459e-05
-2.8136e-06
1.20473e-05
-2.20707e-06
1.19778e-05
-1.68285e-06
1.1931e-05
-1.22128e-06
1.19064e-05
-8.05319e-07
-4.20567e-07
1.19073e-05
1.87085e-05
-2.41985e-06
1.63786e-05
-5.19141e-06
1.49224e-05
-5.19375e-06
1.40769e-05
-4.57881e-06
1.35865e-05
-3.8674e-06
1.32872e-05
-3.19785e-06
1.30907e-05
-2.59773e-06
1.29538e-05
-2.06102e-06
1.28546e-05
-1.58141e-06
1.27863e-05
-1.15036e-06
1.2748e-05
-7.56319e-07
-3.94167e-07
1.27375e-05
1.8218e-05
-1.60417e-06
1.67855e-05
-3.65728e-06
1.56855e-05
-4.04311e-06
1.49662e-05
-3.77834e-06
1.44978e-05
-3.32973e-06
1.41858e-05
-2.83516e-06
1.39699e-05
-2.34608e-06
1.38123e-05
-1.88216e-06
1.3694e-05
-1.45091e-06
1.36098e-05
-1.05476e-06
1.35567e-05
-6.92742e-07
1.35318e-05
-3.51987e-07
1.10772e-05
-6.29469e-08
1.11206e-05
3.35793e-07
1.11657e-05
7.61409e-07
1.12093e-05
1.21773e-06
1.12525e-05
1.72248e-06
1.13051e-05
2.29298e-06
1.13841e-05
2.96912e-06
1.15276e-05
3.80831e-06
1.18302e-05
4.93262e-06
1.25528e-05
6.58581e-06
1.47657e-05
9.11978e-06
1.2657e-05
1.19462e-05
-7.27119e-08
1.2002e-05
3.14921e-07
1.20629e-05
7.26307e-07
1.21324e-05
1.16674e-06
1.22117e-05
1.64147e-06
1.23229e-05
2.17115e-06
1.24912e-05
2.7708e-06
1.27791e-05
3.47566e-06
1.32943e-05
4.32594e-06
1.43666e-05
5.42112e-06
1.65824e-05
6.70049e-06
7.08279e-06
1.27893e-05
-9.82335e-08
1.28545e-05
2.77308e-07
1.29287e-05
6.73187e-07
1.30143e-05
1.08959e-06
1.31196e-05
1.53069e-06
1.32628e-05
2.00781e-06
1.34762e-05
2.52511e-06
1.38124e-05
3.09143e-06
1.43645e-05
3.69947e-06
1.53197e-05
4.32758e-06
1.70903e-05
4.849e-06
4.10721e-06
1.36055e-05
-1.48487e-07
1.36808e-05
2.20341e-07
1.37653e-05
5.99731e-07
1.38615e-05
9.86994e-07
1.39814e-05
1.39199e-06
1.41393e-05
1.81288e-06
1.43666e-05
2.25145e-06
1.47005e-05
2.69356e-06
1.52032e-05
3.11498e-06
1.59881e-05
3.44981e-06
1.72366e-05
3.49277e-06
2.49641e-06
2.52997e-06
-1.11317e-06
1.60244e-06
-2.66777e-06
8.06852e-07
-3.15193e-06
2.23933e-07
-3.12725e-06
-1.8436e-07
-2.86119e-06
-4.73849e-07
-2.50007e-06
-6.84974e-07
-2.10309e-06
-8.46832e-07
-1.70217e-06
-9.74701e-07
-1.31213e-06
-1.07431e-06
-9.49058e-07
-1.14496e-06
-6.10174e-07
-2.82931e-07
-1.19235e-06
1.93992e-06
-8.14327e-07
1.33663e-06
-2.00073e-06
7.45713e-07
-2.51753e-06
2.81979e-07
-2.59222e-06
-6.90775e-08
-2.44638e-06
-3.31111e-07
-2.18233e-06
-5.31965e-07
-1.86065e-06
-6.92569e-07
-1.51211e-06
-8.29315e-07
-1.15692e-06
-9.50387e-07
-8.12599e-07
-1.06446e-06
-4.78583e-07
-1.78104e-07
-1.16225e-06
1.52576e-06
-6.23303e-07
1.11574e-06
-1.54925e-06
6.81041e-07
-2.01817e-06
3.07881e-07
-2.16202e-06
1.05675e-08
-2.09427e-06
-2.22126e-07
-1.90262e-06
-4.07187e-07
-1.64005e-06
-5.6126e-07
-1.33361e-06
-7.0177e-07
-1.00043e-06
-8.49787e-07
-6.52323e-07
-1.04974e-06
-2.66821e-07
-2.37142e-08
-1.16923e-06
1.22454e-06
-4.958e-07
9.4069e-07
-1.22507e-06
6.10263e-07
-1.65197e-06
3.12688e-07
-1.81052e-06
6.3448e-08
-1.78938e-06
-1.39568e-07
-1.6494e-06
-3.05079e-07
-1.43219e-06
-4.45943e-07
-1.16109e-06
-5.77943e-07
-8.46177e-07
-7.28918e-07
-4.83889e-07
-9.7088e-07
4.04036e-10
-7.7753e-07
-1.91579e-07
-1.0771e-06
-2.52925e-07
-9.81463e-07
1.37482e-07
-8.86347e-07
5.09457e-07
-7.80404e-07
8.73969e-07
-6.52737e-07
1.24449e-06
-4.86791e-07
1.6154e-06
-2.58828e-07
1.98142e-06
6.02111e-08
2.32257e-06
5.05781e-07
2.60274e-06
1.12596e-06
2.74305e-06
1.98298e-06
2.57509e-06
1.60387e-06
-9.79346e-07
-4.1781e-07
-8.45425e-07
1.09334e-08
-7.36998e-07
3.96681e-07
-6.26925e-07
7.48148e-07
-5.00994e-07
1.08701e-06
-3.40708e-07
1.41416e-06
-1.28637e-07
1.71796e-06
1.56385e-07
1.98114e-06
5.31599e-07
2.16244e-06
1.01681e-06
2.19274e-06
1.60802e-06
1.92904e-06
1.08501e-06
-9.34286e-07
-6.53905e-07
-7.30352e-07
-1.92763e-07
-6.07937e-07
2.67858e-07
-5.00073e-07
6.24901e-07
-3.80872e-07
9.43028e-07
-2.33158e-07
1.23326e-06
-4.1722e-08
1.48765e-06
2.05748e-07
1.68866e-06
5.17486e-07
1.8005e-06
8.94196e-07
1.76319e-06
1.30934e-06
1.47284e-06
7.70912e-07
-8.13455e-07
-5.8765e-07
-5.9297e-07
-4.10917e-07
-4.83741e-07
1.49524e-07
-3.89617e-07
5.08812e-07
-2.8305e-07
8.05089e-07
-1.51204e-07
1.06116e-06
1.75294e-08
1.27555e-06
2.29565e-07
1.43165e-06
4.86628e-07
1.49941e-06
7.80207e-07
1.42899e-06
1.07876e-06
1.15019e-06
5.66894e-07
1.00139e-06
-4.06608e-07
7.96659e-07
-9.91333e-07
5.45672e-07
-1.3587e-06
3.06252e-07
-1.52636e-06
9.82054e-08
-1.53428e-06
-7.6407e-08
-1.43295e-06
-2.21019e-07
-1.25228e-06
-3.42943e-07
-1.01378e-06
-4.47558e-07
-7.23067e-07
-5.33956e-07
-3.8241e-07
-5.96565e-07
8.42376e-08
-7.04997e-07
8.32157e-07
-3.39897e-07
6.8185e-07
-8.13156e-07
4.8605e-07
-1.13536e-06
2.94011e-07
-1.29119e-06
1.20482e-07
-1.31717e-06
-2.79007e-08
-1.24064e-06
-1.52337e-07
-1.0905e-06
-2.54242e-07
-8.81196e-07
-3.33005e-07
-6.22103e-07
-3.73319e-07
-3.24227e-07
-2.81571e-07
2.53985e-08
-9.18342e-07
7.02115e-07
-2.89222e-07
5.87816e-07
-6.79273e-07
4.35221e-07
-9.52444e-07
2.78979e-07
-1.10223e-06
1.35231e-07
-1.13461e-06
9.18901e-09
-1.07949e-06
-9.65544e-08
-9.5323e-07
-1.81246e-07
-7.72483e-07
-2.40926e-07
-5.44553e-07
-2.62191e-07
-2.88202e-07
-1.86027e-07
-2.61085e-08
-1.01134e-06
6.00112e-07
-2.47748e-07
5.12578e-07
-5.70596e-07
3.90264e-07
-8.10988e-07
2.64041e-07
-9.4389e-07
1.44106e-07
-9.8207e-07
3.7795e-08
-9.39652e-07
-5.20433e-08
-8.32844e-07
-1.22203e-07
-6.77017e-07
-1.68197e-07
-4.78911e-07
-1.78952e-07
-2.61657e-07
-1.13691e-07
-6.35305e-08
-1.05454e-06
5.19673e-07
-2.1425e-07
4.502e-07
-4.87932e-07
3.52815e-07
-6.93227e-07
2.4913e-07
-8.1985e-07
1.49791e-07
-8.52041e-07
5.98926e-08
-8.2334e-07
-1.66143e-08
-7.30608e-07
-7.50569e-08
-5.98258e-07
-1.1163e-07
-4.27145e-07
-1.1606e-07
-2.43241e-07
-6.22461e-08
-9.48838e-08
-1.03519e-06
4.55797e-07
-1.84877e-07
4.00742e-07
-4.17266e-07
3.20576e-07
-6.02473e-07
2.37302e-07
-7.15003e-07
1.52957e-07
-7.44006e-07
7.75907e-08
-7.24218e-07
1.12698e-08
-6.40869e-07
-3.76976e-08
-5.3023e-07
-6.77271e-08
-3.80443e-07
-6.87567e-08
-2.28609e-07
-2.36132e-08
-1.15778e-07
-9.80775e-07
4.09844e-07
-1.58395e-07
3.64e-07
-3.60131e-07
2.98043e-07
-5.23368e-07
2.30234e-07
-6.2376e-07
1.56821e-07
-6.50909e-07
9.34334e-08
-6.34803e-07
3.3388e-08
-5.64032e-07
-7.76791e-09
-4.69128e-07
-3.47565e-08
-3.42218e-07
-3.3189e-08
-2.16039e-07
5.89099e-09
-1.32815e-07
-9.09365e-07
3.89827e-07
-1.32312e-07
3.49633e-07
-3.05489e-07
2.92707e-07
-4.45903e-07
2.34658e-07
-5.47244e-07
1.67653e-07
-5.5447e-07
1.10861e-07
-5.57542e-07
5.35819e-08
-4.80799e-07
1.63585e-08
-4.14291e-07
-9.82823e-09
-2.9688e-07
-6.7524e-09
-2.0312e-07
3.0312e-08
-1.45437e-07
-8.16764e-07
4.1847e-07
-1.08313e-07
3.78732e-07
-2.55665e-07
3.19955e-07
-3.89669e-07
2.70518e-07
-4.3625e-07
1.94508e-07
-4.89204e-07
1.43713e-07
-4.46198e-07
7.57006e-08
-4.27082e-07
4.23127e-08
-3.36217e-07
9.00203e-09
-2.71736e-07
1.45329e-08
-1.82167e-07
5.12709e-08
-1.73453e-07
-7.17461e-07
5.3806e-07
-7.19918e-08
4.86483e-07
-2.01868e-07
4.2326e-07
-2.81204e-07
3.59284e-07
-3.05917e-07
2.74355e-07
-3.42674e-07
2.04509e-07
-3.0469e-07
1.24923e-07
-3.01482e-07
7.68422e-08
-2.33475e-07
3.69121e-08
-1.99485e-07
3.72668e-08
-1.41749e-07
7.76648e-08
-1.74353e-07
-5.8892e-07
7.53263e-07
2.47093e-08
6.77657e-07
-7.67058e-08
5.9858e-07
-6.25049e-08
5.22475e-07
2.64133e-09
4.17469e-07
-1.9206e-08
3.26741e-07
3.98461e-08
2.22223e-07
-1.9087e-08
1.56877e-07
2.51782e-08
1.03361e-07
-1.45994e-08
9.85813e-08
8.91337e-09
1.24359e-07
-9.20866e-08
-3.51052e-07
1.76268e-07
1.29407e-07
1.19958e-07
1.71076e-07
2.11276e-07
2.91342e-07
3.17799e-07
3.7278e-07
3.91879e-07
4.24231e-07
3.51052e-07
-3.88092e-07
-1.83878e-07
-3.94874e-07
-4.06701e-07
-3.59281e-07
1.03764e-07
-2.92767e-07
4.24876e-07
-2.03055e-07
6.91774e-07
-8.7693e-08
9.16517e-07
5.91181e-08
1.09653e-06
2.39812e-07
1.21678e-06
4.51345e-07
1.25202e-06
6.82274e-07
1.16546e-06
8.99027e-07
9.05357e-07
4.36295e-07
-1.15002e-07
-1.65704e-08
-2.55039e-07
-2.63989e-07
-2.57147e-07
9.51413e-08
-2.11615e-07
3.59946e-07
-1.37982e-07
5.88949e-07
-3.85085e-08
7.84328e-07
8.80505e-08
9.35759e-07
2.41406e-07
1.03184e-06
4.16136e-07
1.05021e-06
5.9859e-07
9.60225e-07
7.62283e-07
7.33319e-07
3.39779e-07
-8.54285e-08
9.34807e-08
-1.74182e-07
-1.77037e-07
-1.80344e-07
9.35843e-08
-1.47367e-07
3.11631e-07
-8.57166e-08
5.08725e-07
-3.91552e-10
6.75529e-07
1.08896e-07
8.02265e-07
2.39272e-07
8.76994e-07
3.83682e-07
8.80666e-07
5.30271e-07
7.93243e-07
6.53383e-07
5.90859e-07
2.78072e-07
-5.31187e-08
1.86769e-07
-1.16419e-07
-1.10886e-07
-1.2234e-07
9.12598e-08
-9.65461e-08
2.69887e-07
-4.45541e-08
4.3395e-07
2.89233e-08
5.77332e-07
1.23241e-07
6.84135e-07
2.34189e-07
7.46413e-07
3.54689e-07
7.46322e-07
4.72922e-07
6.64344e-07
5.7056e-07
4.95204e-07
2.24131e-07
-2.61135e-08
2.39429e-07
-7.46666e-08
-6.31223e-08
-7.86899e-08
9.18341e-08
-5.76766e-08
2.36635e-07
-1.19711e-08
3.76557e-07
5.15645e-08
4.96563e-07
1.33863e-07
5.85651e-07
2.28953e-07
6.3617e-07
3.29269e-07
6.27832e-07
4.27199e-07
5.57399e-07
5.02239e-07
4.06085e-07
1.93937e-07
-7.28969e-09
2.69826e-07
-4.36253e-08
-2.35881e-08
-4.62006e-08
8.74699e-08
-2.7325e-08
2.07493e-07
1.31574e-08
3.1952e-07
6.8996e-08
4.25127e-07
1.4168e-07
4.99012e-07
2.23158e-07
5.44393e-07
3.08977e-07
5.37643e-07
3.89402e-07
4.73814e-07
4.51795e-07
3.51469e-07
1.58722e-07
6.9656e-09
2.86202e-07
-2.25373e-08
5.1928e-09
-2.18308e-08
8.60784e-08
-5.18407e-09
1.81554e-07
3.39267e-08
2.75104e-07
8.3314e-08
3.63537e-07
1.50026e-07
4.25643e-07
2.21357e-07
4.63748e-07
2.95498e-07
4.55612e-07
3.64979e-07
4.01622e-07
4.13973e-07
2.92204e-07
1.41229e-07
1.72751e-08
2.77236e-07
-7.77312e-09
3.19414e-08
-4.07213e-09
7.7347e-08
1.24331e-08
1.58576e-07
5.2357e-08
2.25058e-07
9.88844e-08
3.09178e-07
1.63736e-07
3.53725e-07
2.29712e-07
3.95064e-07
2.98002e-07
3.84764e-07
3.60617e-07
3.39734e-07
4.04312e-07
2.47687e-07
1.2123e-07
2.89931e-08
2.85019e-07
1.41516e-09
4.92289e-08
1.21129e-08
8.13825e-08
2.77556e-08
1.19636e-07
7.75086e-08
1.93639e-07
1.23461e-07
2.34613e-07
1.9798e-07
2.94228e-07
2.64575e-07
3.08153e-07
3.37072e-07
3.13945e-07
4.01316e-07
2.71676e-07
4.46069e-07
2.08019e-07
1.04744e-07
3.72145e-08
2.61496e-07
1.57856e-08
7.32335e-08
3.10303e-08
6.77903e-08
5.75339e-08
7.6974e-08
1.19331e-07
1.30307e-07
1.83096e-07
1.46857e-07
2.7643e-07
2.00264e-07
3.64053e-07
2.05592e-07
4.54511e-07
2.16312e-07
5.39304e-07
2.05186e-07
5.9453e-07
1.58123e-07
8.7295e-08
6.47367e-08
2.25503e-07
5.8052e-08
8.43588e-08
8.47418e-08
3.90465e-08
1.25669e-07
-1.07668e-08
2.10711e-07
2.58548e-08
3.02e-07
-1.0392e-08
4.33633e-07
5.65955e-08
5.58772e-07
3.61358e-08
6.92489e-07
7.85145e-08
8.2045e-07
1.21202e-07
9.05075e-07
9.6709e-08
5.44163e-08
2.26463e-07
3.11449e-07
3.38852e-07
3.24838e-07
3.34428e-07
3.21929e-07
3.68081e-07
4.02289e-07
4.91199e-07
6.18039e-07
7.12569e-07
)
;

boundaryField
{
    rotor
    {
        type            calculated;
        value           uniform 0;
    }
    stator
    {
        type            calculated;
        value           uniform -0;
    }
    front
    {
        type            empty;
        value           nonuniform 0();
    }
    back
    {
        type            empty;
        value           nonuniform 0();
    }
    procBoundary0to1
    {
        type            processor;
        value           nonuniform List<scalar> 
20
(
-2.27772e-05
-2.25412e-05
-2.02311e-05
-1.89732e-05
-2.95652e-06
-2.18926e-06
-1.67195e-06
-1.3135e-06
-1.05689e-06
-8.68205e-07
-7.26054e-07
-6.16747e-07
-5.31275e-07
-4.64496e-07
-4.16572e-07
-3.95864e-07
-4.25304e-07
-5.47476e-07
-7.69116e-07
-1.17916e-07
)
;
    }
    procBoundary0to2
    {
        type            processor;
        value           nonuniform List<scalar> 
20
(
2.20793e-05
2.21864e-05
2.00357e-05
1.88438e-05
2.86234e-06
2.11811e-06
1.61906e-06
1.27433e-06
1.03096e-06
8.51765e-07
7.19529e-07
6.16701e-07
5.3933e-07
4.76794e-07
4.35603e-07
4.20352e-07
4.60505e-07
6.10003e-07
9.24764e-07
7.58305e-07
)
;
    }
}


// ************************************************************************* //
