/*--------------------------------*- C++ -*----------------------------------*\
  =========                 |
  \\      /  F ield         | OpenFOAM: The Open Source CFD Toolbox
   \\    /   O peration     | Website:  https://openfoam.org
    \\  /    A nd           | Version:  6
     \\/     M anipulation  |
\*---------------------------------------------------------------------------*/
FoamFile
{
    version     2.0;
    format      ascii;
    class       volVectorField;
    location    "1500";
    object      U;
}
// * * * * * * * * * * * * * * * * * * * * * * * * * * * * * * * * * * * * * //

dimensions      [0 1 -1 0 0 0 0];

internalField   nonuniform List<vector> 
768
(
(1.43334 -0.261441 6.10039e-21)
(1.53592 -0.248399 0)
(1.39786 -0.288718 -7.80701e-21)
(1.30401 -0.354964 0)
(1.23685 -0.416173 2.18691e-18)
(1.19038 -0.479229 -2.11299e-18)
(1.13766 -0.542236 0)
(1.08744 -0.607298 -7.83778e-18)
(1.02519 -0.665519 1.47907e-17)
(0.968162 -0.726159 -1.1388e-17)
(0.910173 -0.788223 -2.7418e-18)
(0.855328 -0.853369 -3.0914e-18)
(1.06803 -0.301657 -1.54538e-19)
(0.946008 -0.186955 -1.89661e-19)
(0.731256 -0.150521 2.1281e-19)
(0.607211 -0.146497 0)
(0.541771 -0.156172 -5.76011e-19)
(0.50161 -0.171186 5.51684e-19)
(0.471053 -0.190368 0)
(0.444361 -0.211894 9.46906e-19)
(0.418297 -0.235453 -3.47229e-18)
(0.392821 -0.259762 2.35957e-18)
(0.367408 -0.284791 2.95993e-18)
(0.342467 -0.309688 -4.69832e-18)
(1.00304 -0.225609 -1.0664e-20)
(0.739822 -0.0996035 0)
(0.500682 -0.0698947 -9.98437e-20)
(0.387501 -0.0679839 0)
(0.334312 -0.0748166 0)
(0.303689 -0.084827 -3.80741e-19)
(0.281503 -0.0968107 1.50513e-18)
(0.262721 -0.110109 -1.28233e-18)
(0.245299 -0.124512 5.29856e-19)
(0.228571 -0.139512 0)
(0.212189 -0.154972 1.37115e-18)
(0.196117 -0.170604 -7.64899e-19)
(1.0275 -0.0795453 -7.08512e-21)
(0.70875 -0.0159995 6.23531e-20)
(0.453186 -0.0197224 8.58145e-20)
(0.342403 -0.0301299 1.98685e-19)
(0.292728 -0.0421176 -1.63748e-19)
(0.264165 -0.0544047 -2.50823e-19)
(0.242935 -0.0673207 0)
(0.22479 -0.0805172 0)
(0.208025 -0.0943401 4.58882e-19)
(0.192217 -0.108346 0)
(0.176862 -0.122738 1.14611e-20)
(0.161993 -0.137147 6.32776e-19)
(1.06215 0.0975697 1.25498e-19)
(0.716045 0.0709122 -2.29614e-20)
(0.449203 0.0253552 -8.9453e-20)
(0.337245 -0.000243207 0)
(0.287718 -0.0184304 0)
(0.258354 -0.0345604 2.68654e-19)
(0.236041 -0.0497853 0)
(0.216629 -0.0650277 -8.44013e-19)
(0.198923 -0.0800797 -5.70779e-19)
(0.182196 -0.0952836 9.67551e-19)
(0.166284 -0.11033 -1.77161e-18)
(0.150718 -0.125525 1.20449e-18)
(1.08864 0.308733 -6.34572e-21)
(0.72599 0.167153 -6.00727e-20)
(0.451132 0.0730241 8.52391e-20)
(0.338384 0.0305067 -2.77108e-20)
(0.287804 0.00500948 1.8238e-19)
(0.257021 -0.0152999 -5.57458e-19)
(0.233229 -0.0336481 7.52916e-19)
(0.212518 -0.0512729 8.44813e-20)
(0.193744 -0.0682929 0)
(0.17616 -0.0849775 0)
(0.159452 -0.101257 2.41555e-18)
(0.143164 -0.117389 1.10874e-19)
(1.09712 0.534784 -1.36731e-19)
(0.728762 0.27301 -1.23614e-19)
(0.449416 0.125083 0)
(0.336213 0.0642468 -1.82412e-19)
(0.284791 0.0303201 2.55118e-19)
(0.252789 0.00536699 9.20636e-19)
(0.227793 -0.0167061 7.57654e-19)
(0.206386 -0.0368989 4.17705e-20)
(0.18694 -0.0562072 -2.0314e-18)
(0.169012 -0.0743482 1.03509e-18)
(0.151761 -0.0919905 1.27858e-18)
(0.135106 -0.108881 6.17862e-20)
(1.04078 0.753365 2.24019e-20)
(0.716424 0.384508 1.53583e-19)
(0.441019 0.182242 0)
(0.328447 0.100426 -2.45425e-19)
(0.276312 0.0574042 -2.53068e-19)
(0.243524 0.0266912 9.44513e-20)
(0.218313 0.000869737 -1.47615e-18)
(0.19684 -0.0223987 7.87701e-20)
(0.177644 -0.0436822 3.77077e-20)
(0.159768 -0.0635036 1.1384e-18)
(0.142687 -0.0820506 -1.25329e-18)
(0.125808 -0.0997478 -4.18162e-20)
(0.941756 0.968018 -2.58876e-19)
(0.693631 0.510105 8.86387e-20)
(0.423421 0.245014 -4.15892e-19)
(0.312507 0.138829 2.39833e-19)
(0.260915 0.0846888 0)
(0.228739 0.0476942 0)
(0.204446 0.0176756 8.6835e-19)
(0.184061 -0.00841649 1.97302e-18)
(0.165847 -0.031671 -9.99724e-19)
(0.148801 -0.0527454 -1.13475e-18)
(0.132293 -0.0720798 -1.23408e-18)
(0.115754 -0.0900984 0)
(0.763737 1.15478 -8.02619e-20)
(0.64249 0.648695 3.02899e-19)
(0.389343 0.31171 6.62499e-19)
(0.285504 0.176978 0)
(0.23741 0.11037 7.33391e-19)
(0.208204 0.0666775 0)
(0.18658 0.0326278 8.06452e-20)
(0.168495 0.00404572 -8.69865e-19)
(0.152141 -0.0207609 1.17035e-18)
(0.136555 -0.0427204 0)
(0.121115 -0.062464 0)
(0.105305 -0.0804702 -2.69946e-18)
(0.420525 1.20521 -4.20601e-19)
(0.505796 0.761869 3.87322e-19)
(0.322796 0.367641 1.01696e-19)
(0.242148 0.208875 -7.8684e-19)
(0.204896 0.131212 -3.10847e-19)
(0.182391 0.08177 -4.02889e-19)
(0.165542 0.0445741 -9.78166e-19)
(0.150981 0.0142557 -3.18749e-18)
(0.137244 -0.0114894 -1.11554e-18)
(0.123624 -0.0338509 -2.41408e-18)
(0.109639 -0.0536101 2.55747e-18)
(0.0949167 -0.0712664 2.67339e-18)
(-0.106883 1.00167 4.76386e-19)
(0.216873 0.704545 -1.53915e-19)
(0.206856 0.376569 1.17397e-19)
(0.179897 0.223333 7.57512e-19)
(0.164118 0.142857 0)
(0.152749 0.0910431 -9.62129e-19)
(0.142606 0.0525952 9.66665e-19)
(0.13247 0.0217212 1.01024e-18)
(0.121853 -0.00415507 -3.41782e-18)
(0.110521 -0.026389 2.38656e-18)
(0.0982979 -0.0457685 -2.52845e-18)
(0.0849318 -0.0627848 0)
(0.792529 -0.910791 1.08477e-17)
(0.730792 -0.967875 -2.97574e-17)
(0.666797 -1.02446 7.44222e-18)
(0.604944 -1.08554 2.24744e-17)
(0.538388 -1.13882 -2.29311e-17)
(0.473481 -1.19416 5.03064e-18)
(0.406722 -1.24316 2.46431e-19)
(0.34051 -1.28919 -5.33343e-18)
(0.27013 -1.33454 -1.27817e-17)
(0.224424 -1.46923 0)
(0.229236 -1.52827 0)
(0.264557 -1.22902 -1.88901e-20)
(0.316938 -0.334606 -2.99001e-19)
(0.291461 -0.359258 3.58856e-18)
(0.265905 -0.38422 -2.09294e-20)
(0.240783 -0.408901 0)
(0.215787 -0.433469 3.45849e-18)
(0.192165 -0.458089 0)
(0.170452 -0.483932 2.57782e-18)
(0.153059 -0.516034 4.18593e-18)
(0.144352 -0.572554 -3.10333e-18)
(0.159999 -0.695579 0)
(0.225038 -0.898741 0)
(0.333831 -1.00898 -2.65808e-20)
(0.180153 -0.186426 8.97466e-19)
(0.164369 -0.202325 -8.2649e-19)
(0.148721 -0.218414 9.70204e-19)
(0.133452 -0.234689 0)
(0.118637 -0.251429 -1.10956e-18)
(0.104692 -0.268922 2.45005e-18)
(0.0919288 -0.28836 -3.05791e-18)
(0.0812524 -0.313453 -3.4515e-18)
(0.075546 -0.357659 2.46943e-18)
(0.0834011 -0.459579 0)
(0.12796 -0.672253 1.56478e-18)
(0.278075 -0.897725 1.27066e-18)
(0.147249 -0.151826 6.93041e-19)
(0.132792 -0.166544 -1.51414e-18)
(0.118365 -0.181628 1.69249e-18)
(0.10426 -0.197026 -1.69267e-18)
(0.0903083 -0.213198 0)
(0.0768868 -0.230305 9.99595e-19)
(0.0637525 -0.249296 1.08205e-18)
(0.051503 -0.27288 6.36206e-19)
(0.0411439 -0.312595 -1.35294e-18)
(0.0370672 -0.406928 0)
(0.0506678 -0.616281 -1.39072e-18)
(0.109787 -0.826157 4.2667e-18)
(0.135529 -0.140638 1.43211e-18)
(0.120319 -0.156036 -6.92018e-19)
(0.105237 -0.171602 0)
(0.0899588 -0.187837 0)
(0.0748136 -0.204846 9.15548e-19)
(0.0594037 -0.223157 -9.71218e-19)
(0.0441952 -0.243373 -2.95316e-21)
(0.0286174 -0.26801 0)
(0.0127553 -0.307217 -6.66804e-19)
(-0.00490428 -0.40085 1.05229e-18)
(-0.0302401 -0.621842 -2.60955e-18)
(-0.0237229 -0.893222 -2.47847e-18)
(0.127138 -0.133356 -2.79141e-18)
(0.110991 -0.149442 1.4503e-18)
(0.0946605 -0.165753 3.28572e-18)
(0.0778971 -0.182712 1.11571e-19)
(0.0607249 -0.200612 -4.5338e-18)
(0.0429976 -0.220073 -1.94669e-18)
(0.0248102 -0.241752 4.86568e-21)
(0.00544814 -0.267779 0)
(-0.0167178 -0.30778 0)
(-0.0500102 -0.400115 -1.00094e-18)
(-0.117137 -0.632416 -1.2217e-18)
(-0.199215 -0.964288 3.0253e-18)
(0.118298 -0.125642 1.46686e-18)
(0.101403 -0.142108 -2.98774e-18)
(0.0837329 -0.15891 -1.62283e-18)
(0.0654891 -0.176109 5.9026e-20)
(0.0460874 -0.194503 1.95168e-18)
(0.0258515 -0.214424 2.07008e-18)
(0.00411678 -0.237049 1.08146e-18)
(-0.0194797 -0.264227 1.14293e-18)
(-0.0488186 -0.304299 -1.24907e-18)
(-0.0969785 -0.395693 0)
(-0.205818 -0.630397 2.29305e-18)
(-0.398226 -0.973196 -2.96783e-18)
(0.108778 -0.116745 0)
(0.0911154 -0.133446 1.5221e-18)
(0.0725505 -0.150073 0)
(0.0527072 -0.16715 -4.5183e-20)
(0.0314172 -0.185145 -1.02712e-19)
(0.0083052 -0.204894 3.78248e-18)
(-0.0169126 -0.227325 -4.06871e-18)
(-0.0455589 -0.254708 0)
(-0.082059 -0.295068 -1.22304e-18)
(-0.14639 -0.383023 9.04868e-19)
(-0.295588 -0.614372 -3.11859e-18)
(-0.592625 -0.952683 7.48843e-18)
(0.0987307 -0.107125 1.47418e-18)
(0.0807704 -0.123495 -1.47405e-18)
(0.061476 -0.139587 -1.60358e-18)
(0.0405189 -0.155808 1.68945e-18)
(0.0174607 -0.172779 1.83869e-18)
(-0.00809367 -0.19122 -5.60716e-18)
(-0.0369767 -0.212364 2.00859e-18)
(-0.0706644 -0.238506 0)
(-0.115291 -0.276757 1.20134e-18)
(-0.195863 -0.360269 0)
(-0.384874 -0.582 2.84366e-18)
(-0.759283 -0.861711 -7.41243e-18)
(0.0886829 -0.0971342 0)
(0.0707623 -0.112816 -3.00969e-18)
(0.0511762 -0.12787 -1.56925e-18)
(0.0294898 -0.142724 -3.38636e-18)
(0.0052497 -0.157885 1.7086e-18)
(-0.02232 -0.174061 1.85345e-18)
(-0.0543007 -0.192352 0)
(-0.0930071 -0.215109 0)
(-0.145732 -0.249147 0)
(-0.242801 -0.321361 0)
(-0.47406 -0.522356 -8.45224e-19)
(-0.925242 -0.745431 1.24736e-19)
(0.0790228 -0.087237 1.45272e-18)
(0.0615066 -0.101891 1.52848e-18)
(0.0420205 -0.115553 6.23712e-18)
(0.020144 -0.128609 1.57268e-18)
(-0.00465944 -0.141379 6.77189e-18)
(-0.0333894 -0.15436 -1.73642e-18)
(-0.067485 -0.168338 -1.81902e-18)
(-0.110095 -0.185119 0)
(-0.16971 -0.209736 -2.06275e-18)
(-0.279658 -0.263136 -1.33246e-18)
(-0.54527 -0.411479 -1.40738e-18)
(-1.03341 -0.59943 -1.2546e-25)
(0.0700559 -0.0777678 0)
(0.0532536 -0.0911283 0)
(0.034241 -0.103182 -6.11474e-18)
(0.0127073 -0.114172 -4.82089e-18)
(-0.0119574 -0.124225 -1.71168e-18)
(-0.0407343 -0.133424 0)
(-0.0754057 -0.141911 1.798e-18)
(-0.119423 -0.150158 0)
(-0.181419 -0.160449 9.66682e-20)
(-0.292051 -0.181251 1.23713e-18)
(-0.568037 -0.247119 5.7226e-19)
(-1.45647 -0.303074 2.61838e-18)
(-0.58215 0.317741 -2.61081e-19)
(-0.116878 0.475267 0)
(0.0672008 0.325403 9.81119e-20)
(0.109029 0.212906 0)
(0.120653 0.142217 0)
(0.122391 0.0934097 9.47695e-19)
(0.119577 0.0563111 0)
(0.114079 0.0263128 2.1544e-18)
(0.106684 0.00114431 2.28193e-18)
(0.0977452 -0.0204328 2.45679e-18)
(0.0874109 -0.0390942 -1.30365e-18)
(0.0755902 -0.0552127 -1.37013e-18)
(-0.409476 0.188749 -1.83986e-19)
(-0.159887 0.3105 -1.37239e-19)
(-0.00555219 0.252441 -2.15615e-19)
(0.0572807 0.184595 0)
(0.08396 0.131234 -5.09523e-19)
(0.0950821 0.0897119 2.63284e-18)
(0.0982486 0.0562164 0)
(0.0967994 0.0283264 1.1481e-18)
(0.0923365 0.00456735 -1.14855e-18)
(0.0856743 -0.0159261 -2.42123e-18)
(0.0772256 -0.0336269 -2.55896e-18)
(0.0670825 -0.0486914 2.63404e-18)
(-0.271408 0.098912 -3.34272e-19)
(-0.142658 0.200632 4.41079e-19)
(-0.0348964 0.189474 -8.0334e-19)
(0.0248957 0.152809 5.20555e-19)
(0.0564143 0.115471 0)
(0.0724826 0.0822437 -4.28387e-18)
(0.07962 0.053382 0)
(0.0812259 0.0283091 2.31525e-18)
(0.0791662 0.00641247 -1.18552e-18)
(0.074505 -0.0127317 2.50806e-18)
(0.0678438 -0.0293496 1.27355e-18)
(0.0594997 -0.0433609 -2.62416e-18)
(-0.188532 0.0576156 4.84058e-19)
(-0.117384 0.13344 5.98054e-19)
(-0.0437018 0.141633 0)
(0.00645766 0.123793 0)
(0.0370904 0.0986923 0)
(0.0547842 0.0729802 4.39696e-18)
(0.064021 0.0488265 2.28193e-18)
(0.0676195 0.0268116 -3.43958e-18)
(0.0673471 0.00698423 3.57023e-18)
(0.0643163 -0.0107023 -2.42271e-18)
(0.0593088 -0.026261 0)
(0.0530005 -0.0395179 2.58292e-18)
(0.0619925 -0.0689632 -2.7796e-18)
(0.0461315 -0.0808416 -2.88148e-18)
(0.0279089 -0.091175 3.00435e-18)
(0.00716073 -0.10004 -3.0745e-18)
(-0.0166446 -0.107352 0)
(-0.0443563 -0.112735 -3.25127e-18)
(-0.0776342 -0.115523 4.19429e-18)
(-0.119353 -0.114277 -8.5909e-19)
(-0.176201 -0.106224 1.85866e-18)
(-0.267766 -0.0835361 -5.07256e-19)
(-0.452434 -0.0128081 7.1172e-19)
(-0.893795 0.402996 -5.17695e-19)
(0.0549966 -0.0609586 2.7387e-18)
(0.0401974 -0.0712347 2.83948e-18)
(0.0229727 -0.0798319 0)
(0.00333031 -0.0867039 1.50406e-18)
(-0.0190402 -0.0915245 3.08895e-18)
(-0.0447908 -0.093607 1.64007e-18)
(-0.0749842 -0.0916763 -6.48744e-18)
(-0.111308 -0.0833382 -1.62809e-18)
(-0.156674 -0.0639274 -1.657e-18)
(-0.21733 -0.022358 -4.40327e-19)
(-0.30063 0.0734305 5.12722e-19)
(-0.324279 0.354183 2.97187e-19)
(0.0492143 -0.0538278 0)
(0.0354327 -0.0623583 -4.18679e-18)
(0.0192607 -0.0692937 1.40863e-18)
(0.00092212 -0.074409 1.43092e-18)
(-0.0196895 -0.0771663 2.99031e-18)
(-0.0429377 -0.0767066 -1.51088e-18)
(-0.0692531 -0.0715396 3.92904e-18)
(-0.0991323 -0.0591599 3.93026e-18)
(-0.132606 -0.0351192 8.52034e-19)
(-0.168601 0.0088947 -8.06537e-19)
(-0.19806 0.0912024 -2.04638e-19)
(-0.160637 0.241213 1.1474e-22)
(0.0449406 -0.0476911 0)
(0.0317702 -0.0542031 5.9898e-21)
(0.0165245 -0.0595727 0)
(-0.00045693 -0.0631948 -5.69076e-18)
(-0.0191999 -0.0643535 1.46067e-18)
(-0.039768 -0.0621031 -4.3833e-18)
(-0.0621439 -0.0550148 0)
(-0.0859254 -0.0409033 -3.05735e-18)
(-0.109638 -0.0164479 1.54052e-18)
(-0.129411 0.0234251 -1.49641e-18)
(-0.134587 0.0861014 -5.61413e-19)
(-0.0905891 0.170446 -1.88146e-19)
(-0.136363 0.0395072 -6.354e-19)
(-0.0929965 0.0935894 -5.77467e-19)
(-0.0418741 0.106966 0)
(-0.00214946 0.0990438 0)
(0.0248421 0.0823051 1.70069e-18)
(0.0418353 0.0626794 -1.6438e-18)
(0.0515666 0.0427997 6.028e-20)
(0.0560991 0.0237754 3.46399e-18)
(0.0569079 0.00604525 -1.13242e-18)
(0.0550724 -0.0101928 1.23058e-18)
(0.0515972 -0.0249324 -6.25235e-18)
(0.0478596 -0.0383049 0)
(-0.102871 0.0267356 4.65287e-19)
(-0.0754546 0.0671036 4.48761e-19)
(-0.0391326 0.0818598 -1.1659e-18)
(-0.0076444 0.079798 -5.64624e-19)
(0.0156662 0.068892 -1.65248e-18)
(0.0314414 0.0539744 0)
(0.0411368 0.0376518 -3.4116e-18)
(0.046164 0.0212328 -1.18862e-18)
(0.0477022 0.00533707 -2.34585e-18)
(0.0467948 -0.00976297 0)
(0.0448959 -0.0246138 5.02557e-18)
(0.0453857 -0.0408879 0)
(-0.0802406 0.0190522 3.11576e-19)
(-0.0621361 0.0496255 -1.19018e-18)
(-0.0357169 0.0636244 1.14352e-18)
(-0.0107628 0.0646196 5.68887e-19)
(0.00907553 0.05761 -1.13671e-18)
(0.0232999 0.04626 5.67787e-19)
(0.0325263 0.0328683 0)
(0.0376333 0.0187261 1.13011e-18)
(0.0395 0.00447221 1.16743e-18)
(0.0391058 -0.00976767 1.22282e-18)
(0.0388023 -0.0261431 -6.7667e-18)
(0.0455774 -0.0509431 0)
(-0.0643257 0.0141576 -6.12774e-19)
(-0.0518546 0.0377011 1.78237e-18)
(-0.032196 0.0501318 0)
(-0.0123162 0.0526311 -2.30526e-18)
(0.00440118 0.0482002 0)
(0.0169703 0.0395345 -1.151e-18)
(0.0254628 0.0285453 -1.13896e-18)
(0.0303338 0.016406 5.79207e-18)
(0.0321468 0.00371831 1.56944e-20)
(0.0316669 -0.00958433 -1.22097e-18)
(0.0315164 -0.0281757 6.4003e-18)
(0.0422731 -0.0704787 -1.25389e-17)
(0.0428075 -0.0430529 0)
(0.0288885 -0.0469431 -2.68349e-18)
(0.0140918 -0.050788 0)
(-0.00169712 -0.0531521 1.38688e-18)
(-0.0186631 -0.0530548 1.39562e-18)
(-0.0366936 -0.0495125 7.13385e-18)
(-0.0554646 -0.0412643 2.14689e-18)
(-0.0740287 -0.0265796 -7.22206e-19)
(-0.0902684 -0.00328615 1.43791e-18)
(-0.0997328 0.0309869 3.54555e-20)
(-0.0933413 0.0774821 7.22767e-19)
(-0.0529179 0.127081 0)
(0.0453692 -0.0404982 1.45131e-18)
(0.0280753 -0.0403346 -2.70792e-18)
(0.0130195 -0.0426808 1.32866e-18)
(-0.00170195 -0.0441825 0)
(-0.0169142 -0.0433675 2.7231e-18)
(-0.0325394 -0.0392684 -2.77964e-18)
(-0.0480848 -0.0308462 -5.57062e-18)
(-0.0624405 -0.0168889 0)
(-0.0734271 0.00382553 -1.41113e-18)
(-0.0771586 0.0319837 2.65154e-20)
(-0.0671999 0.0661307 -1.67549e-19)
(-0.0341482 0.0972139 1.67859e-19)
(0.0555076 -0.0402343 0)
(0.0290652 -0.0341435 -3.72366e-21)
(0.0124747 -0.0352374 -5.31514e-18)
(-0.00138773 -0.036292 5.27185e-18)
(-0.0149844 -0.0351714 -2.6728e-18)
(-0.0284622 -0.0309636 -1.34498e-18)
(-0.0412936 -0.0228778 3.3841e-18)
(-0.0523778 -0.0101509 2.68775e-18)
(-0.05974 0.00775388 6.75271e-19)
(-0.0602917 0.0305559 1.34979e-18)
(-0.0496843 0.0559006 0)
(-0.0234032 0.0764592 3.18527e-19)
(0.0753775 -0.0354613 -1.32968e-17)
(0.0304044 -0.0267468 5.12448e-18)
(0.0117217 -0.0280676 1.20799e-17)
(-0.00113385 -0.0292639 -6.49048e-18)
(-0.0131598 -0.0281938 -3.88317e-18)
(-0.0247147 -0.0241723 -3.89249e-18)
(-0.035295 -0.016701 -1.30685e-18)
(-0.0438687 -0.00537303 -2.63677e-18)
(-0.0487646 0.00988283 0)
(-0.0476182 0.0283016 3.21506e-19)
(-0.0376372 0.0474165 -3.21534e-19)
(-0.0168055 0.0616496 -6.22782e-19)
(-0.0527565 0.010883 -1.36525e-21)
(-0.0438317 0.0292956 -1.1704e-18)
(-0.0288869 0.0400366 0)
(-0.0129522 0.0431442 1.69258e-18)
(0.00107851 0.0404059 2.84911e-18)
(0.0120426 0.0337595 1.11245e-18)
(0.0196829 0.0247395 1.13334e-18)
(0.0241311 0.0143909 -4.5447e-18)
(0.0256164 0.00334324 0)
(0.0244232 -0.00826689 -3.76811e-18)
(0.0213189 -0.0257035 5.93721e-18)
(0.00778769 -0.0741977 3.1743e-17)
(-0.044121 0.00858334 5.94661e-19)
(-0.0375256 0.0232018 0)
(-0.025944 0.0323558 2.30125e-18)
(-0.0130648 0.0356084 0)
(-0.00129604 0.0339835 2.74693e-20)
(0.00819539 0.0288587 4.51863e-18)
(0.0149697 0.0214565 1.12819e-18)
(0.0189378 0.0127045 -5.67066e-18)
(0.02008 0.00326734 0)
(0.0184206 -0.00649749 3.7369e-18)
(0.0140801 -0.0214056 -6.38062e-18)
(-0.00600439 -0.0591367 0)
(-0.037536 0.00690548 -2.9205e-19)
(-0.0325269 0.0186724 1.15281e-18)
(-0.023391 0.0264401 -2.25628e-18)
(-0.012892 0.0295976 2.81439e-18)
(-0.00300777 0.0286918 -1.09464e-18)
(0.00517777 0.024724 -2.75927e-18)
(0.0111394 0.0186482 -6.70313e-18)
(0.014654 0.0112977 5.56938e-18)
(0.0155664 0.00334758 0)
(0.013851 -0.00463084 -3.68941e-18)
(0.00984164 -0.0157649 -2.074e-18)
(-0.00481623 -0.040766 0)
(-0.0324228 0.00564102 -1.42742e-19)
(-0.0285316 0.0152312 -1.26919e-18)
(-0.0212113 0.0218284 2.8166e-19)
(-0.0125802 0.0247798 1.77882e-20)
(-0.00425199 0.0243382 -2.19824e-18)
(0.00280703 0.021253 0)
(0.00803623 0.0162618 5.48789e-18)
(0.0111556 0.0101198 -1.10209e-18)
(0.0119414 0.00347926 0)
(0.0103895 -0.00296497 9.5997e-18)
(0.00700148 -0.0109669 0)
(-0.0018675 -0.0259738 0)
(-0.0284 0.00466402 -5.65688e-19)
(-0.0253141 0.0125711 0)
(-0.01936 0.0181979 1.66511e-18)
(-0.0122056 0.0209099 -2.1813e-18)
(-0.00516524 0.0207426 2.19712e-21)
(0.000933364 0.0183424 4.90839e-18)
(0.00552262 0.0142278 -1.08692e-18)
(0.00831386 0.00911485 -3.27344e-18)
(0.00905096 0.00359297 1.09643e-18)
(0.0077596 -0.00159709 -4.67546e-18)
(0.00505351 -0.00734596 -3.78738e-18)
(0.000180226 -0.0160888 1.16131e-17)
(-0.0252345 0.00389377 5.54661e-19)
(-0.0227441 0.0104919 0)
(-0.0178276 0.0153276 -2.17222e-18)
(-0.0118546 0.0178087 5.39486e-19)
(-0.00587427 0.0177722 -5.39481e-19)
(-0.000560591 0.0159146 -5.35096e-18)
(0.00347726 0.012491 4.29682e-18)
(0.00601692 0.00825059 5.34693e-18)
(0.00674638 0.00365418 0)
(0.00575937 -0.000534937 1.14359e-18)
(0.00368418 -0.00470531 -1.80454e-18)
(0.00125359 -0.00954305 0)
(-0.0229488 0.00328062 1.36487e-19)
(-0.0208947 0.00887296 -1.22534e-18)
(-0.0167418 0.0130925 0)
(-0.0116997 0.0153452 0)
(-0.00653293 0.0153896 0)
(-0.00182606 0.0139294 -1.06404e-18)
(0.00179293 0.0110552 -3.1774e-18)
(0.00416586 0.00751311 -4.2564e-18)
(0.00493277 0.00366403 1.06608e-18)
(0.00425087 0.000253903 2.38554e-22)
(0.00271392 -0.00282888 -1.56025e-17)
(0.00184591 -0.00518201 -8.47847e-17)
(-0.0220576 0.00281824 5.64642e-19)
(-0.0202906 0.00770852 1.40168e-18)
(-0.0166247 0.0114682 -2.8009e-19)
(-0.0121864 0.0135884 5.54458e-19)
(-0.00752268 0.0136167 3.32631e-18)
(-0.00312828 0.0124703 3.87044e-18)
(0.000276252 0.00994925 -4.40533e-18)
(0.00264596 0.00693834 9.88842e-18)
(0.00351711 0.00361651 0)
(0.00314127 0.000780737 0)
(0.00203536 -0.00154538 1.2057e-17)
(0.00190608 -0.0023777 1.0121e-17)
(-0.0240245 0.0025519 -6.61859e-19)
(-0.0223468 0.00713429 -3.29979e-19)
(-0.0187077 0.0107201 3.30364e-19)
(-0.0144385 0.0126752 0)
(-0.00966356 0.0128889 -1.04448e-17)
(-0.00510658 0.0117334 -6.50044e-18)
(-0.00142297 0.00950172 5.1879e-18)
(0.00122734 0.00663051 -5.17539e-18)
(0.00241787 0.0036396 1.29821e-18)
(0.00236659 0.00107614 1.34794e-18)
(0.00160425 -0.0007378 -1.91075e-18)
(0.00170861 -0.000697892 8.09793e-17)
(-0.032193 0.00257357 -1.0123e-18)
(-0.0302486 0.0075004 0)
(-0.0259822 0.0112904 -4.0522e-18)
(-0.0209627 0.013188 1.00644e-18)
(-0.0149844 0.0138176 6.01984e-18)
(-0.00926153 0.0123346 -9.9687e-19)
(-0.00428118 0.0101878 -3.99423e-18)
(-0.000683626 0.00695652 1.39454e-17)
(0.00135552 0.00392948 -1.39418e-17)
(0.00176221 0.00126343 -2.57309e-21)
(0.00132839 -0.000300364 -2.66108e-18)
(0.0012349 1.49868e-05 0)
(-0.0533356 0.00295439 1.71464e-18)
(-0.0504249 0.00921002 -7.46893e-18)
(-0.0442439 0.0136157 1.71893e-17)
(-0.0368628 0.0160529 0)
(-0.0278131 0.0170621 -2.272e-18)
(-0.0187749 0.0152223 2.27195e-18)
(-0.0106554 0.0125612 1.35572e-17)
(-0.00447869 0.00848366 -6.76255e-17)
(-0.000580224 0.0047657 3.60127e-17)
(0.000858242 0.00158716 0)
(0.000889817 -3.68706e-05 0)
(0.000638183 0.000138436 0)
(-0.0918584 0.00355023 1.75663e-17)
(-0.0872623 0.011714 3.42657e-17)
(-0.0775799 0.0173338 -6.85489e-17)
(-0.0662012 0.0207351 8.66237e-18)
(-0.0520431 0.0224827 -1.76481e-17)
(-0.0373888 0.0202991 -4.44731e-17)
(-0.0239626 0.0170428 -3.54464e-17)
(-0.0133196 0.0118407 1.77215e-17)
(-0.00616079 0.00726946 -1.23807e-16)
(-0.00282167 0.00348339 -1.78033e-17)
(-0.00148454 0.00149719 0)
(-0.000895093 0.000805086 -2.62313e-16)
(0.0783106 0.00151703 3.33878e-17)
(0.0271837 -0.017068 8.35557e-18)
(0.00987901 -0.0212784 -5.44908e-18)
(-0.00118971 -0.0230975 -6.3494e-18)
(-0.0115739 -0.0222949 6.3399e-18)
(-0.0213979 -0.0186199 6.37131e-18)
(-0.030111 -0.0118734 -6.35127e-19)
(-0.0367681 -0.00193135 -1.27204e-18)
(-0.0399884 0.0109844 6.35437e-19)
(-0.0380174 0.0259065 0)
(-0.0290928 0.0405562 0)
(-0.0125262 0.0507978 1.26518e-21)
(0.0627642 0.0142411 0)
(0.0222986 -0.0108989 9.66969e-21)
(0.00770011 -0.0158643 0)
(-0.00146015 -0.0179547 4.9837e-18)
(-0.0102439 -0.0173807 -1.23785e-18)
(-0.0185298 -0.0140951 2.47572e-18)
(-0.0256925 -0.00808886 -6.80416e-18)
(-0.0308851 0.000562482 6.19643e-19)
(-0.0329743 0.0114754 0)
(-0.0306711 0.0236297 -2.44025e-18)
(-0.0229007 0.0350622 0)
(-0.00960923 0.0426689 5.93682e-19)
(0.0446128 0.0114325 0)
(0.0164584 -0.00752754 -1.09661e-17)
(0.00560671 -0.0118584 1.31972e-18)
(-0.00178774 -0.0138211 0)
(-0.00912562 -0.0133556 4.8224e-18)
(-0.0160664 -0.0104215 1.20862e-18)
(-0.0219481 -0.00510681 4.24433e-18)
(-0.0260166 0.00239887 -3.6133e-18)
(-0.0273398 0.0116267 6.02098e-19)
(-0.0249841 0.0216013 4.77159e-18)
(-0.0183011 0.0306474 1.17655e-18)
(-0.00754705 0.0364547 -2.90599e-19)
(0.0302899 0.00758886 -5.10576e-17)
(0.0116694 -0.00525889 0)
(0.00382686 -0.0088404 0)
(-0.00209011 -0.0105269 5.94264e-18)
(-0.00817382 -0.0100817 -5.90648e-18)
(-0.0139604 -0.00745118 1.17977e-18)
(-0.0187864 -0.0027561 -1.17969e-18)
(-0.0219904 0.00374908 2.36022e-18)
(-0.0227993 0.0115786 2.3384e-18)
(-0.0205364 0.0198269 -1.06439e-20)
(-0.0148286 0.0271078 -1.15355e-18)
(-0.0060359 0.0316355 2.83727e-19)
(0.0203948 0.00483119 4.87437e-17)
(0.00807709 -0.00373384 0)
(0.00240928 -0.00656896 1.24919e-18)
(-0.00231442 -0.00791839 -1.04617e-17)
(-0.00734445 -0.00743795 0)
(-0.0121518 -0.00504952 -5.75842e-18)
(-0.016113 -0.000889452 6.32769e-18)
(-0.0186528 0.00476593 -5.16289e-18)
(-0.0191104 0.0114386 -1.72276e-18)
(-0.0170285 0.0183213 -5.11439e-18)
(-0.0121562 0.0242409 0)
(-0.00490513 0.0278469 -5.55958e-19)
(0.013615 0.00294254 1.1641e-17)
(0.00546588 -0.00268696 -9.52086e-18)
(0.00133298 -0.00484534 0)
(-0.00245684 -0.00585571 6.04701e-21)
(-0.00660942 -0.00530497 0)
(-0.0106061 -0.00311453 1.13818e-18)
(-0.0138581 0.00060309 -5.63699e-18)
(-0.015891 0.00554158 3.93837e-18)
(-0.0161112 0.011282 2.79138e-18)
(-0.0142436 0.0170798 2.22386e-18)
(-0.0100809 0.021972 -1.0992e-18)
(-0.00403578 0.0248837 2.72361e-19)
(0.00891173 0.0016503 0)
(0.00361381 -0.00197837 2.18951e-17)
(0.000556232 -0.00355707 1.06993e-17)
(-0.00251949 -0.00425299 3.36164e-18)
(-0.00596664 -0.00359886 0)
(-0.0093195 -0.00153672 5.55656e-18)
(-0.0120128 0.00185246 -5.56103e-19)
(-0.0136687 0.0062451 -2.15107e-21)
(-0.0137434 0.0112682 -2.75409e-18)
(-0.0120773 0.0162592 0)
(-0.00849141 0.0203612 2.14603e-21)
(-0.00336294 0.0227786 7.95791e-27)
(0.00574151 0.000842006 -8.53087e-17)
(0.00236347 -0.00151305 -3.07505e-17)
(3.96733e-05 -0.00263345 -8.5146e-18)
(-0.00253491 -0.00304086 -9.20964e-18)
(-0.00547172 -0.00222445 0)
(-0.00837466 -0.000166457 1.14089e-18)
(-0.0106629 0.00309984 -1.70963e-18)
(-0.0120766 0.00720291 2.28808e-21)
(-0.0120454 0.0118309 5.66511e-19)
(-0.0105486 0.0163378 0)
(-0.00734498 0.0199652 1.11556e-18)
(-0.00290831 0.0220712 5.5227e-19)
(0.00368502 0.000378701 1.87035e-20)
(0.00161228 -0.00126982 1.59696e-17)
(-0.000274321 -0.00204513 0)
(-0.00256949 -0.00214045 1.35694e-18)
(-0.00530154 -0.0010179 -2.07939e-21)
(-0.00796766 0.00135217 -5.36294e-18)
(-0.0101381 0.00488939 4.67414e-18)
(-0.0113851 0.00923845 -5.99104e-18)
(-0.0113593 0.014009 0)
(-0.00985562 0.0186085 -2.63369e-18)
(-0.00685256 0.0221936 0)
(-0.00267789 0.0242742 -1.29711e-18)
(0.00257203 0.000124542 9.08671e-17)
(0.00124052 -0.00121076 -2.76554e-18)
(-0.000485561 -0.00171413 2.13406e-17)
(-0.00281933 -0.0013194 1.44713e-17)
(-0.00578183 0.000499243 -1.44046e-17)
(-0.00857401 0.00389212 8.20634e-18)
(-0.0110245 0.0085765 -2.05279e-18)
(-0.0122441 0.0142552 7.1358e-18)
(-0.0123048 0.0202855 1.01587e-18)
(-0.0105504 0.0260519 7.55992e-18)
(-0.00732378 0.030452 -1.49967e-18)
(-0.00284592 0.0329887 9.93442e-19)
(0.0019401 -5.03285e-05 0)
(0.00102963 -0.00123961 0)
(-0.000788711 -0.00131268 -3.79749e-17)
(-0.00362599 6.32776e-05 0)
(-0.0073583 0.00359301 4.18398e-17)
(-0.0109424 0.00944194 -4.63502e-17)
(-0.0141455 0.0171668 -1.15496e-17)
(-0.0157152 0.0262946 1.60977e-17)
(-0.0158377 0.0358401 0)
(-0.0135667 0.0448629 -1.61145e-21)
(-0.00931569 0.0517301 1.35669e-17)
(-0.00365642 0.055695 0)
(0.000964416 0.000411541 -2.3893e-16)
(-2.48527e-05 -8.37281e-05 -1.9674e-16)
(-0.00228623 0.00108696 1.83882e-17)
(-0.00581197 0.00441804 0)
(-0.0106468 0.0110886 -1.82798e-17)
(-0.0153868 0.021338 1.82488e-16)
(-0.019742 0.0345481 -1.81939e-17)
(-0.0218942 0.0500058 -8.14481e-17)
(-0.0221537 0.0661543 9.01058e-18)
(-0.0190783 0.0815996 -3.57204e-17)
(-0.0131559 0.0936069 -7.112e-17)
(-0.00529122 0.100801 8.82572e-18)
)
;

boundaryField
{
    rotor
    {
        type            fixedValue;
        value           nonuniform List<vector> 
48
(
(0.201784 -0.00660572 0)
(0.20092 -0.0197889 0)
(0.199195 -0.0328873 0)
(0.196618 -0.0458448 0)
(0.193198 -0.0586061 0)
(0.188952 -0.0711164 0)
(0.183896 -0.0833222 0)
(0.178053 -0.0951712 0)
(0.171447 -0.106613 0)
(0.164107 -0.117597 0)
(0.156065 -0.128079 0)
(0.147354 -0.138012 0)
(0.138012 -0.147354 0)
(0.128079 -0.156065 0)
(0.117597 -0.164107 0)
(0.106613 -0.171447 0)
(0.0951712 -0.178053 0)
(0.0833222 -0.183896 0)
(0.0711164 -0.188952 0)
(0.0586061 -0.193198 0)
(0.0458448 -0.196618 0)
(0.0328873 -0.199195 0)
(0.0197889 -0.20092 0)
(0.00660572 -0.201784 0)
(0.214625 3.8523e-10 -0)
(0.239875 4.30551e-10 -0)
(0.265125 4.75872e-10 -0)
(0.290375 5.21193e-10 -0)
(0.315625 5.66514e-10 -0)
(0.340875 6.11835e-10 -0)
(0.366125 6.57157e-10 -0)
(0.391375 7.02478e-10 -0)
(0.416625 7.47799e-10 -0)
(0.441875 7.9312e-10 -0)
(0.467125 8.38441e-10 -0)
(0.492375 8.83762e-10 -0)
(-7.70459e-10 -0.214625 0)
(-8.61102e-10 -0.239875 0)
(-9.51744e-10 -0.265125 0)
(-1.04239e-09 -0.290375 0)
(-1.13303e-09 -0.315625 0)
(-1.22367e-09 -0.340875 0)
(-1.31431e-09 -0.366125 0)
(-1.40496e-09 -0.391375 0)
(-1.4956e-09 -0.416625 0)
(-1.58624e-09 -0.441875 0)
(-1.67688e-09 -0.467125 0)
(-1.76752e-09 -0.492375 0)
)
;
    }
    stator
    {
        type            noSlip;
    }
    front
    {
        type            empty;
    }
    back
    {
        type            empty;
    }
    procBoundary0to1
    {
        type            processor;
        value           nonuniform List<vector> 
20
(
(-0.417576 -0.905569 -9.93506e-19)
(-0.365205 -0.324252 -7.7447e-27)
(-0.247809 -0.158269 -2.12323e-19)
(-0.174868 -0.0878504 -1.78764e-19)
(-0.130306 -0.0502984 -3.40503e-19)
(-0.0996641 -0.0318495 8.41903e-19)
(-0.0783472 -0.0214182 4.83342e-19)
(-0.063114 -0.0150974 -1.42976e-18)
(-0.0519265 -0.0110493 6.21293e-19)
(-0.0435231 -0.00832708 3.03745e-19)
(-0.037084 -0.00642886 -4.47741e-19)
(-0.0320746 -0.00506449 0)
(-0.0281212 -0.00406555 -7.15793e-19)
(-0.0250161 -0.00332286 -1.40834e-19)
(-0.0227818 -0.00278864 5.53731e-19)
(-0.0219426 -0.00243786 -7.13429e-19)
(-0.0239563 -0.00233327 6.70021e-19)
(-0.0321875 -0.00262738 0)
(-0.0533511 -0.00358437 0)
(-0.0911242 -0.00519159 9.13134e-18)
)
;
    }
    procBoundary0to2
    {
        type            processor;
        value           nonuniform List<vector> 
20
(
(0.308372 0.569168 -2.88541e-19)
(0.179091 0.400432 3.985e-19)
(0.0920903 0.265712 -1.63212e-19)
(0.0523506 0.184611 -6.50149e-19)
(0.0352497 0.133413 6.27592e-19)
(0.023266 0.100539 -1.51575e-19)
(0.0161785 0.0783605 6.13026e-19)
(0.0117295 0.0627941 -1.20369e-18)
(0.00880941 0.0515161 2.94951e-19)
(0.00679334 0.0431174 2.90209e-19)
(0.00535306 0.0367415 -2.85107e-19)
(0.00428072 0.0318045 5.59222e-19)
(0.00347975 0.0279443 -5.48545e-19)
(0.00286647 0.0249234 2.68988e-19)
(0.00238909 0.0227812 7.95102e-27)
(0.00207785 0.0220244 5.45679e-19)
(0.00192788 0.0241624 -1.27922e-18)
(0.00209792 0.032705 9.77141e-19)
(0.00279077 0.0551272 0)
(0.00392012 0.100058 1.67461e-17)
)
;
    }
}


// ************************************************************************* //
