/*--------------------------------*- C++ -*----------------------------------*\
  =========                 |
  \\      /  F ield         | OpenFOAM: The Open Source CFD Toolbox
   \\    /   O peration     | Website:  https://openfoam.org
    \\  /    A nd           | Version:  6
     \\/     M anipulation  |
\*---------------------------------------------------------------------------*/
FoamFile
{
    version     2.0;
    format      ascii;
    class       volScalarField;
    location    "1000";
    object      k;
}
// * * * * * * * * * * * * * * * * * * * * * * * * * * * * * * * * * * * * * //

dimensions      [0 2 -2 0 0 0 0];

internalField   nonuniform List<scalar> 
768
(
0.594898
0.724039
0.746174
0.757706
0.754264
0.76017
0.753822
0.765308
0.779069
0.781889
0.777305
0.780102
0.634036
0.854099
0.942099
0.965746
0.971902
0.974104
0.974361
0.975037
0.975296
0.975372
0.974856
0.974923
0.626785
0.881516
0.963865
0.982355
0.987166
0.988583
0.988989
0.989168
0.989203
0.989182
0.989088
0.989106
0.627487
0.887304
0.967932
0.984844
0.989144
0.990354
0.990671
0.990786
0.990796
0.990792
0.990806
0.990832
0.639478
0.89215
0.969583
0.985231
0.989088
0.990152
0.99043
0.990486
0.990459
0.990468
0.990455
0.990468
0.639055
0.896913
0.97102
0.985272
0.988677
0.989507
0.989721
0.989731
0.989763
0.989802
0.989819
0.989795
0.650177
0.904417
0.972797
0.98537
0.98819
0.988895
0.989017
0.989029
0.98901
0.989098
0.989034
0.988995
0.65446
0.912691
0.974981
0.985585
0.987848
0.988399
0.988427
0.988338
0.988319
0.988359
0.98833
0.988326
0.676818
0.923474
0.977567
0.985877
0.987467
0.987817
0.987847
0.98776
0.987773
0.987683
0.987668
0.987722
0.681209
0.928062
0.979645
0.986091
0.987129
0.987286
0.987272
0.987177
0.987171
0.98706
0.986994
0.987095
0.69096
0.932197
0.981685
0.986376
0.9868
0.986721
0.986739
0.986683
0.986567
0.986528
0.986409
0.986396
0.79989
0.95979
0.984863
0.986588
0.986587
0.986424
0.986239
0.986069
0.986051
0.986026
0.985886
0.985932
0.78218
0.792899
0.771227
0.757689
0.780365
0.795409
0.794039
0.790198
0.772188
0.741666
0.696526
0.590744
0.974958
0.975376
0.974607
0.974491
0.975627
0.976798
0.977243
0.977215
0.974552
0.954513
0.854396
0.633263
0.989084
0.9891
0.989071
0.989101
0.989185
0.989257
0.989286
0.989196
0.987867
0.976198
0.899191
0.627116
0.990802
0.990795
0.990784
0.990814
0.990837
0.990862
0.99085
0.990748
0.989687
0.980311
0.909866
0.616957
0.990489
0.990504
0.990463
0.99044
0.990451
0.99049
0.990537
0.990519
0.989662
0.981448
0.915397
0.630048
0.989754
0.989702
0.989712
0.989706
0.989737
0.989797
0.989873
0.989885
0.989207
0.98222
0.920755
0.635998
0.989013
0.989049
0.989078
0.989077
0.989046
0.989145
0.98916
0.989219
0.988835
0.983228
0.926585
0.647361
0.988292
0.988234
0.988315
0.988369
0.988375
0.988382
0.988488
0.988656
0.988475
0.984581
0.935983
0.666052
0.987674
0.98761
0.987587
0.98769
0.987755
0.987765
0.987899
0.988091
0.988311
0.985899
0.942924
0.688404
0.987082
0.987031
0.986942
0.986919
0.986976
0.987084
0.987337
0.987664
0.988187
0.987551
0.951856
0.707388
0.986396
0.986446
0.986512
0.986565
0.986493
0.986475
0.986758
0.987106
0.987974
0.988827
0.96419
0.733242
0.985819
0.985789
0.985896
0.986011
0.986057
0.986015
0.98621
0.986571
0.987463
0.990646
0.996506
0.780038
0.971766
0.991727
0.988034
0.986552
0.986177
0.985821
0.985545
0.985571
0.985548
0.985455
0.985355
0.985429
0.99704
0.990698
0.987289
0.985999
0.985678
0.985439
0.98503
0.984752
0.984848
0.98494
0.98487
0.984906
0.991213
0.987917
0.986228
0.985317
0.985069
0.984988
0.984573
0.984297
0.9843
0.984439
0.98459
0.984412
0.987192
0.985861
0.984984
0.984624
0.984385
0.984252
0.984102
0.984
0.984153
0.984156
0.984039
0.984038
0.98531
0.985252
0.985472
0.985503
0.98547
0.985477
0.985551
0.985865
0.986817
0.990074
1.00138
0.944947
0.984897
0.984781
0.984856
0.984827
0.984858
0.984966
0.985133
0.985435
0.985913
0.987915
0.992807
0.997219
0.984135
0.984231
0.984322
0.984444
0.984552
0.984512
0.984683
0.984833
0.985088
0.986127
0.988088
0.991021
0.983846
0.983821
0.983819
0.983734
0.983871
0.983997
0.984279
0.98422
0.984366
0.984834
0.985617
0.986757
0.985068
0.984325
0.983905
0.983734
0.983636
0.983551
0.983484
0.983426
0.983443
0.983446
0.983393
0.983081
0.984021
0.983478
0.983255
0.983161
0.983131
0.983084
0.983043
0.983012
0.983016
0.982998
0.982586
0.980586
0.983397
0.982917
0.982799
0.982732
0.98273
0.982692
0.982671
0.982661
0.982656
0.982464
0.980241
0.969724
0.98295
0.982493
0.982416
0.982374
0.982382
0.982352
0.98234
0.982337
0.982301
0.98151
0.973486
0.923784
0.982987
0.983233
0.983329
0.983336
0.983375
0.983448
0.98355
0.983543
0.98365
0.983849
0.984188
0.984677
0.980262
0.982187
0.982827
0.982961
0.982981
0.983017
0.98304
0.983071
0.983127
0.98323
0.983363
0.983585
0.968541
0.97904
0.982022
0.982546
0.982615
0.982647
0.98265
0.982682
0.982716
0.982745
0.982815
0.982945
0.919481
0.970756
0.980608
0.982091
0.982281
0.98231
0.982318
0.982352
0.98236
0.982364
0.982392
0.982488
0.982582
0.982145
0.982082
0.982063
0.982072
0.982046
0.982037
0.98203
0.981926
0.980182
0.959421
0.763251
0.982266
0.981841
0.981783
0.981775
0.981788
0.981761
0.981756
0.981752
0.981619
0.979418
0.952431
0.702681
0.981989
0.981576
0.981526
0.981516
0.98153
0.981508
0.981504
0.981502
0.981364
0.979115
0.951693
0.699694
0.98173
0.981337
0.981285
0.981283
0.981291
0.981276
0.981274
0.981272
0.981146
0.979036
0.952822
0.704107
0.981501
0.981112
0.981063
0.981065
0.981071
0.981062
0.981058
0.981057
0.980942
0.979018
0.954356
0.707818
0.981282
0.980906
0.980859
0.980861
0.980865
0.980856
0.980854
0.980854
0.980756
0.979022
0.955897
0.712631
0.981019
0.980637
0.980586
0.98059
0.980593
0.980587
0.980585
0.980582
0.9805
0.978927
0.957251
0.717149
0.979872
0.979392
0.979331
0.979325
0.979325
0.979323
0.979322
0.979317
0.97925
0.977786
0.957209
0.721995
0.973427
0.972591
0.972443
0.972452
0.972427
0.972424
0.972437
0.972408
0.972376
0.970802
0.949849
0.723846
0.94412
0.942126
0.941834
0.941763
0.941717
0.941698
0.941711
0.941713
0.941703
0.940006
0.916685
0.707597
0.826959
0.822305
0.82161
0.820935
0.820803
0.820788
0.820725
0.820751
0.820805
0.81943
0.797259
0.644858
0.523742
0.523222
0.522437
0.520598
0.519702
0.519713
0.518778
0.51799
0.517416
0.516928
0.511781
0.471999
0.762781
0.956868
0.978896
0.981641
0.981967
0.982007
0.982014
0.982049
0.982031
0.982024
0.982042
0.982129
0.706248
0.949811
0.977912
0.98129
0.981687
0.98174
0.981746
0.981775
0.981752
0.981751
0.981749
0.981827
0.702169
0.948798
0.977598
0.981038
0.981438
0.981489
0.981501
0.981518
0.981498
0.981486
0.981485
0.981557
0.70428
0.949753
0.977583
0.980842
0.981214
0.981259
0.981279
0.981288
0.981272
0.981259
0.98125
0.981316
0.70879
0.95127
0.977675
0.980672
0.981006
0.981042
0.981064
0.981064
0.981053
0.981035
0.98103
0.981093
0.713337
0.952848
0.977784
0.980518
0.980809
0.980841
0.98086
0.980857
0.980853
0.980838
0.980831
0.980888
0.718126
0.954294
0.977803
0.980292
0.98054
0.980573
0.98058
0.980589
0.980575
0.980569
0.980559
0.98061
0.722933
0.954429
0.976751
0.979063
0.979289
0.979325
0.979326
0.979344
0.979322
0.979335
0.979316
0.979354
0.725716
0.947541
0.969832
0.972195
0.972413
0.972489
0.972442
0.972535
0.972426
0.97255
0.972475
0.97252
0.710138
0.915458
0.939131
0.941584
0.941844
0.941932
0.941954
0.942029
0.941931
0.94208
0.942023
0.942033
0.647475
0.797743
0.818924
0.820986
0.821301
0.821498
0.821834
0.821894
0.821685
0.821922
0.821829
0.821716
0.473581
0.512325
0.516978
0.517295
0.51756
0.518011
0.519113
0.519545
0.519723
0.520101
0.520356
0.520664
)
;

boundaryField
{
    rotor
    {
        type            kqRWallFunction;
        value           nonuniform List<scalar> 
48
(
0.594898
0.724039
0.746174
0.757706
0.754264
0.76017
0.753822
0.765308
0.779069
0.781889
0.777305
0.780102
0.78218
0.792899
0.771227
0.757689
0.780365
0.795409
0.794039
0.790198
0.772188
0.741666
0.696526
0.590744
0.594898
0.634036
0.626785
0.627487
0.639478
0.639055
0.650177
0.65446
0.676818
0.681209
0.69096
0.79989
0.590744
0.633263
0.627116
0.616957
0.630048
0.635998
0.647361
0.666052
0.688404
0.707388
0.733242
0.780038
)
;
    }
    stator
    {
        type            kqRWallFunction;
        value           nonuniform List<scalar> 
48
(
0.523742
0.523222
0.522437
0.520598
0.519702
0.519713
0.518778
0.51799
0.517416
0.516928
0.511781
0.471999
0.473581
0.512325
0.516978
0.517295
0.51756
0.518011
0.519113
0.519545
0.519723
0.520101
0.520356
0.520664
0.762781
0.706248
0.702169
0.70428
0.70879
0.713337
0.718126
0.722933
0.725716
0.710138
0.647475
0.473581
0.763251
0.702681
0.699694
0.704107
0.707818
0.712631
0.717149
0.721995
0.723846
0.707597
0.644858
0.471999
)
;
    }
    front
    {
        type            empty;
    }
    back
    {
        type            empty;
    }
    procBoundary2to0
    {
        type            processor;
        value           nonuniform List<scalar> 
20
(
0.943783
0.996624
0.991117
0.986765
0.984687
0.983608
0.982972
0.982519
0.982149
0.981853
0.98158
0.981342
0.981112
0.980911
0.980625
0.97937
0.972535
0.942002
0.821595
0.520556
)
;
    }
    procBoundary2to3
    {
        type            processor;
        value           nonuniform List<scalar> 
20
(
0.971981
0.997549
0.991394
0.987194
0.985061
0.984
0.98337
0.982924
0.982552
0.982232
0.981953
0.981703
0.981471
0.981259
0.981
0.97986
0.97344
0.944123
0.826917
0.523512
)
;
    }
}


// ************************************************************************* //
