/*--------------------------------*- C++ -*----------------------------------*\
  =========                 |
  \\      /  F ield         | OpenFOAM: The Open Source CFD Toolbox
   \\    /   O peration     | Website:  https://openfoam.org
    \\  /    A nd           | Version:  6
     \\/     M anipulation  |
\*---------------------------------------------------------------------------*/
FoamFile
{
    version     2.0;
    format      ascii;
    class       volScalarField;
    location    "1000";
    object      nut;
}
// * * * * * * * * * * * * * * * * * * * * * * * * * * * * * * * * * * * * * //

dimensions      [0 2 -1 0 0 0 0];

internalField   nonuniform List<scalar> 
768
(
6.45394e-05
0.000163482
0.000170966
0.000175659
0.000173909
0.000176612
0.000173656
0.000178982
0.000185468
0.000186824
0.000184618
0.000185953
8.06592e-05
0.000488277
0.000977438
0.00128331
0.00141487
0.00146773
0.0014881
0.00150039
0.0015069
0.00151056
0.00150982
0.00151058
8.71141e-05
0.000642729
0.00171583
0.00272526
0.00324512
0.00343268
0.00349011
0.00350742
0.00351284
0.00351273
0.00350954
0.00351018
9.572e-05
0.000708248
0.00201972
0.003335
0.00400977
0.00423598
0.00429777
0.00431415
0.00431792
0.0043179
0.00431775
0.00431773
0.000108036
0.000771247
0.00219487
0.00356254
0.00421364
0.00441822
0.00447111
0.00448352
0.00448577
0.00448592
0.00448622
0.00448646
0.000116502
0.000836213
0.00234339
0.00369562
0.00428907
0.00446247
0.00450477
0.00451397
0.00451544
0.00451611
0.00451711
0.00451685
0.000129261
0.000906986
0.00248366
0.0038014
0.00433351
0.00448012
0.00451491
0.00452084
0.00452108
0.00452224
0.00452343
0.00452333
0.000139882
0.000982046
0.00261647
0.00389038
0.00436762
0.00449215
0.00452013
0.00452382
0.00452326
0.00452473
0.00452588
0.00452673
0.000158985
0.00106005
0.0027355
0.00396233
0.00439437
0.00450098
0.00452436
0.00452667
0.00452597
0.00452735
0.00452787
0.00452856
0.00016974
0.0011081
0.00282668
0.00401914
0.0044144
0.00450766
0.0045281
0.00452971
0.00452825
0.00452859
0.00452994
0.00453055
0.000184167
0.00113303
0.00290654
0.00407086
0.00443076
0.00451277
0.00453121
0.00453265
0.00453054
0.00452953
0.00452789
0.00452855
0.000254463
0.00129924
0.00312312
0.00415918
0.00445697
0.0045214
0.00453413
0.00453327
0.00453046
0.00453033
0.00453089
0.00453103
0.000186936
0.000192105
0.000181756
0.000175423
0.00018607
0.000193325
0.000192667
0.000190816
0.000182218
0.000168129
0.000150985
6.41093e-05
0.00151039
0.00151113
0.00150808
0.00150661
0.00150958
0.00151277
0.00151488
0.00150445
0.00140815
0.00104002
0.00046735
8.07207e-05
0.00350915
0.0035055
0.0035028
0.00350341
0.00350372
0.00350281
0.00350472
0.0034445
0.00305847
0.00192095
0.000705761
8.73697e-05
0.00431692
0.00431571
0.0043149
0.00431538
0.00431533
0.0043143
0.00431393
0.00424432
0.00378769
0.00233856
0.00082504
9.26811e-05
0.00448641
0.00448653
0.00448614
0.00448544
0.00448548
0.00448558
0.00448511
0.00442981
0.00402135
0.00256777
0.000921473
0.000105094
0.00451623
0.00451678
0.0045174
0.0045171
0.00451707
0.00451711
0.00451669
0.00447635
0.0041259
0.00275477
0.00101226
0.000115578
0.00452264
0.00452289
0.00452393
0.00452434
0.00452419
0.00452358
0.00452347
0.00449226
0.00420488
0.00292248
0.0011084
0.000128386
0.00452623
0.00452463
0.00452624
0.00452716
0.00452668
0.00452532
0.00452479
0.0045024
0.0042664
0.00308607
0.00120896
0.00014502
0.00452876
0.00452674
0.00452719
0.00452932
0.00452967
0.00452777
0.00452708
0.00451016
0.00431874
0.00324249
0.0013159
0.000164422
0.00453016
0.00452885
0.00452724
0.00452744
0.00452813
0.00452855
0.00452934
0.00451717
0.00436362
0.00341042
0.00143266
0.000183765
0.00453017
0.00453002
0.00453137
0.00453188
0.00453042
0.00452894
0.00453103
0.00452254
0.00439891
0.00356442
0.00158058
0.00020813
0.00453118
0.00453162
0.00453214
0.0045317
0.0045312
0.00453189
0.00453397
0.00452783
0.00443436
0.00375026
0.00186403
0.00024498
0.00137582
0.00254031
0.00376391
0.00433348
0.0044924
0.00452782
0.00453306
0.00453423
0.00453227
0.00453113
0.00453243
0.00453269
0.00297252
0.00367421
0.00422559
0.0044519
0.00451928
0.00453504
0.00453495
0.00453314
0.00453256
0.00453268
0.00453311
0.004532
0.00401537
0.00425541
0.00443549
0.00450675
0.0045307
0.00453705
0.00453742
0.00453304
0.00452942
0.00453169
0.00453452
0.00453128
0.00439692
0.00445779
0.0045071
0.00452788
0.00453581
0.00453612
0.00453704
0.00453608
0.00453367
0.00453403
0.00453465
0.00453342
0.0045305
0.00453093
0.00453333
0.0045322
0.00453218
0.00453314
0.00453351
0.00453153
0.00448783
0.00415236
0.00284129
0.000904404
0.00453193
0.00453191
0.00453313
0.00453081
0.00453063
0.00453212
0.00453108
0.00453335
0.00451727
0.00439804
0.00380324
0.00256979
0.00452861
0.00453145
0.00453399
0.00453304
0.00453288
0.00453383
0.0045331
0.00453246
0.00452742
0.00449326
0.00430888
0.00386287
0.00453402
0.00453783
0.00453833
0.00453548
0.00453507
0.00453548
0.00453454
0.00453522
0.00453367
0.00452417
0.00447679
0.00436002
0.00450265
0.00451792
0.00452961
0.00453511
0.00453752
0.00453749
0.00453789
0.00453771
0.00453706
0.00453735
0.00453719
0.00449747
0.00452958
0.00453387
0.00453641
0.00453789
0.00453889
0.00453874
0.00453892
0.00453879
0.00453868
0.00453866
0.00448394
0.00421337
0.00453672
0.00453816
0.00453874
0.00453905
0.00453979
0.00453972
0.00453979
0.00453974
0.00453965
0.0045133
0.00421677
0.00316155
0.00453887
0.00453983
0.00454
0.00454011
0.00454055
0.00454047
0.00454054
0.00454054
0.00453534
0.00442725
0.00348876
0.00154096
0.00448688
0.00452613
0.00453653
0.00453766
0.00453754
0.00453718
0.00453712
0.00453785
0.00453766
0.00453485
0.00452172
0.00449512
0.00418851
0.0044472
0.00452448
0.00453708
0.00453865
0.00453875
0.00453873
0.004539
0.00453905
0.00453829
0.00453493
0.00452923
0.0030822
0.00412283
0.00447456
0.00453184
0.00453895
0.00453971
0.00453979
0.00453975
0.00453991
0.00453965
0.00453887
0.00453755
0.00147139
0.00343943
0.00436265
0.00452
0.00453849
0.00454045
0.00454052
0.00454073
0.00454064
0.00454055
0.0045403
0.0045399
0.00453997
0.0045409
0.004541
0.004541
0.00454117
0.00454108
0.00454122
0.00454086
0.00452658
0.0042818
0.00258516
0.00033685
0.0045407
0.00454157
0.00454166
0.0045416
0.00454185
0.00454177
0.00454192
0.00454143
0.00452406
0.00423943
0.00244811
0.000298751
0.00454138
0.00454224
0.00454228
0.00454223
0.00454245
0.00454246
0.00454252
0.00454204
0.00452536
0.0042489
0.00248561
0.000306402
0.00454195
0.00454288
0.00454288
0.00454294
0.00454295
0.004543
0.00454307
0.0045427
0.00452797
0.0042743
0.00256363
0.000319896
0.00454247
0.00454338
0.00454338
0.00454352
0.00454344
0.00454349
0.00454358
0.00454329
0.00453067
0.00430189
0.00264877
0.00033287
0.00454299
0.0045439
0.00454391
0.004544
0.00454393
0.00454393
0.00454406
0.0045438
0.00453308
0.0043277
0.00273341
0.000347097
0.00454289
0.00454364
0.00454362
0.00454369
0.00454361
0.00454357
0.0045437
0.00454347
0.00453439
0.00435006
0.00281454
0.000361268
0.00441797
0.00440111
0.00439927
0.00439903
0.00439889
0.00439888
0.004399
0.00439895
0.00439174
0.00423205
0.00282145
0.000376036
0.00379121
0.00376584
0.0037624
0.00376167
0.00376131
0.00376115
0.00376138
0.00376162
0.00375663
0.00363878
0.00257023
0.000387922
0.00231806
0.00228811
0.00228373
0.00228195
0.00228175
0.00228154
0.00228222
0.00228319
0.00228246
0.00224288
0.00179408
0.000380401
0.000850106
0.00083743
0.000835571
0.000833298
0.00083324
0.000833201
0.000833595
0.00083444
0.000834806
0.00083072
0.000757731
0.00033791
9.91234e-05
9.92005e-05
9.89515e-05
9.82625e-05
9.79118e-05
9.79259e-05
9.75782e-05
9.72894e-05
9.70746e-05
9.68989e-05
9.52239e-05
8.32314e-05
0.000336239
0.00260106
0.00422101
0.00450624
0.00453793
0.00454105
0.0045412
0.00454154
0.00454118
0.00454115
0.00454105
0.00454094
0.000301533
0.00246214
0.00417981
0.00450189
0.00453812
0.00454163
0.00454185
0.00454206
0.00454189
0.00454192
0.00454175
0.00454165
0.000308352
0.00249153
0.00419015
0.00450407
0.00453889
0.00454224
0.00454254
0.00454251
0.00454244
0.00454245
0.00454241
0.0045423
0.000319878
0.002562
0.00421777
0.00450873
0.00453994
0.00454285
0.00454325
0.00454302
0.00454296
0.00454299
0.00454302
0.00454292
0.000333603
0.00264186
0.00424864
0.00451376
0.00454097
0.00454339
0.00454379
0.00454349
0.00454346
0.00454357
0.0045436
0.00454346
0.000347593
0.00272268
0.00427796
0.00451843
0.00454186
0.00454388
0.00454421
0.00454392
0.00454399
0.00454408
0.00454406
0.0045439
0.000362076
0.0028016
0.00430392
0.00452176
0.00454194
0.00454359
0.00454381
0.00454364
0.00454376
0.00454376
0.0045437
0.00454357
0.000376844
0.00281605
0.00419348
0.00438182
0.0043988
0.00440027
0.0044005
0.00440055
0.00440057
0.00440067
0.00440048
0.00440011
0.000389711
0.00257126
0.00361524
0.00375166
0.00376427
0.00376585
0.00376632
0.00376667
0.00376676
0.00376665
0.00376626
0.00376868
0.000382765
0.00180213
0.00223627
0.00228472
0.0022899
0.00229104
0.00229203
0.00229252
0.00229207
0.00229197
0.00229153
0.0022919
0.000339099
0.000760715
0.000830786
0.000837834
0.000838991
0.0008395
0.000840457
0.000840566
0.000840214
0.000839594
0.000839574
0.000839457
8.35372e-05
9.54059e-05
9.69309e-05
9.70305e-05
9.71205e-05
9.72772e-05
9.76747e-05
9.78421e-05
9.79009e-05
9.8018e-05
9.81041e-05
9.81928e-05
)
;

boundaryField
{
    rotor
    {
        type            nutkWallFunction;
        Cmu             0.09;
        kappa           0.41;
        E               9.8;
        value           nonuniform List<scalar> 
48
(
1.12786e-05
2.82349e-05
2.87234e-05
2.89746e-05
2.88999e-05
2.9028e-05
2.88903e-05
2.91391e-05
2.94344e-05
2.94946e-05
2.93967e-05
2.94565e-05
2.95008e-05
2.97283e-05
2.92665e-05
2.89743e-05
2.94621e-05
2.97813e-05
2.97524e-05
2.96711e-05
2.92871e-05
2.86246e-05
2.76159e-05
1.12173e-05
1.12786e-05
1.39422e-05
1.58864e-05
1.79314e-05
2.01788e-05
2.2175e-05
2.44087e-05
2.64919e-05
2.90125e-05
3.11104e-05
3.33473e-05
3.82276e-05
1.12173e-05
1.39301e-05
1.58921e-05
1.77352e-05
1.9992e-05
2.21104e-05
2.4346e-05
2.67625e-05
2.92928e-05
3.17708e-05
3.44513e-05
3.77157e-05
)
;
    }
    stator
    {
        type            nutkWallFunction;
        Cmu             0.09;
        kappa           0.41;
        E               9.8;
        value           nonuniform List<scalar> 
48
(
2.27127e-05
2.26991e-05
2.26785e-05
2.26302e-05
2.26067e-05
2.2607e-05
2.25824e-05
2.25616e-05
2.25465e-05
2.25336e-05
2.23975e-05
2.13183e-05
2.13622e-05
2.24119e-05
2.2535e-05
2.25433e-05
2.25503e-05
2.25622e-05
2.25912e-05
2.26026e-05
2.26072e-05
2.26172e-05
2.26239e-05
2.26319e-05
5.53257e-05
5.51009e-05
5.68217e-05
5.87853e-05
6.08496e-05
6.29187e-05
6.50018e-05
6.70897e-05
6.90867e-05
7.01966e-05
6.8835e-05
2.13622e-05
5.53429e-05
5.49598e-05
5.67207e-05
5.8778e-05
6.08079e-05
6.28877e-05
6.49579e-05
6.70466e-05
6.89988e-05
7.00729e-05
6.86976e-05
2.13183e-05
)
;
    }
    front
    {
        type            empty;
    }
    back
    {
        type            empty;
    }
    procBoundary2to0
    {
        type            processor;
        value           nonuniform List<scalar> 
20
(
0.000904201
0.00256561
0.00386845
0.00436297
0.00449616
0.00452958
0.00453769
0.00454
0.00454108
0.00454175
0.00454239
0.004543
0.0045435
0.00454393
0.00454358
0.00440007
0.00376857
0.00229181
0.000839323
9.818e-05
)
;
    }
    procBoundary2to3
    {
        type            processor;
        value           nonuniform List<scalar> 
20
(
0.00137542
0.00297857
0.00401348
0.00439549
0.00450208
0.00452956
0.00453679
0.00453887
0.00453994
0.00454071
0.00454131
0.00454193
0.00454247
0.00454302
0.00454285
0.0044179
0.00379121
0.00231816
0.000850012
9.90335e-05
)
;
    }
}


// ************************************************************************* //
