/*--------------------------------*- C++ -*----------------------------------*\
  =========                 |
  \\      /  F ield         | OpenFOAM: The Open Source CFD Toolbox
   \\    /   O peration     | Website:  https://openfoam.org
    \\  /    A nd           | Version:  6
     \\/     M anipulation  |
\*---------------------------------------------------------------------------*/
FoamFile
{
    version     2.0;
    format      ascii;
    class       volVectorField;
    location    "1000";
    object      U;
}
// * * * * * * * * * * * * * * * * * * * * * * * * * * * * * * * * * * * * * //

dimensions      [0 1 -1 0 0 0 0];

internalField   nonuniform List<vector> 
768
(
(-0.194481 -1.11166 2.09111e-19)
(-0.16543 -1.2337 -1.42281e-18)
(-0.188293 -1.12825 1.11721e-18)
(-0.229449 -1.02692 -1.90285e-18)
(-0.277196 -0.970656 0)
(-0.326834 -0.928126 3.07308e-18)
(-0.376514 -0.885286 0)
(-0.425043 -0.840998 4.25539e-18)
(-0.472414 -0.795291 -1.55971e-17)
(-0.518827 -0.749831 1.50472e-17)
(-0.564748 -0.704341 3.69421e-17)
(-0.610554 -0.659636 -1.19547e-17)
(-0.168496 -0.790244 1.08485e-20)
(-0.0819339 -0.657364 -5.46212e-19)
(-0.0696174 -0.473184 2.83698e-19)
(-0.0734121 -0.375656 4.06959e-19)
(-0.0836749 -0.331321 -1.11042e-18)
(-0.096767 -0.306783 -1.19772e-19)
(-0.111376 -0.288078 -1.44357e-18)
(-0.126568 -0.271035 -4.40344e-18)
(-0.142123 -0.254379 5.69253e-18)
(-0.157698 -0.238022 -1.89451e-18)
(-0.173402 -0.221796 2.89963e-21)
(-0.189139 -0.205875 2.19023e-19)
(-0.0999277 -0.710517 -6.35754e-20)
(-0.0370345 -0.513497 0)
(-0.0314988 -0.32786 0)
(-0.0349155 -0.24458 -2.17161e-19)
(-0.0416247 -0.208922 0)
(-0.0498874 -0.189743 -3.14705e-19)
(-0.0589983 -0.175845 7.40621e-19)
(-0.0685915 -0.163719 1.83893e-18)
(-0.07851 -0.152266 -7.51448e-19)
(-0.0885925 -0.141201 -2.06333e-18)
(-0.0988257 -0.130395 -3.71831e-18)
(-0.109147 -0.119794 3.83154e-18)
(0.00137303 -0.711976 -4.54072e-20)
(0.00698948 -0.493462 -1.18558e-19)
(-0.00661602 -0.303922 1.96203e-19)
(-0.0161413 -0.223982 1.91013e-19)
(-0.0251533 -0.190725 0)
(-0.0344239 -0.172304 -1.24209e-18)
(-0.0439215 -0.158474 1.22068e-18)
(-0.0535941 -0.146287 0)
(-0.0633811 -0.134896 1.8372e-18)
(-0.0732379 -0.124005 -2.81676e-18)
(-0.0831401 -0.113466 2.23367e-18)
(-0.0930941 -0.103166 9.6042e-20)
(0.123191 -0.728519 4.36252e-20)
(0.0558033 -0.49451 2.36889e-19)
(0.0185994 -0.301749 1.68579e-20)
(0.00131222 -0.222836 0)
(-0.0110526 -0.18988 -5.29568e-19)
(-0.0223493 -0.170794 1.07916e-18)
(-0.0334056 -0.155986 0)
(-0.0443209 -0.142891 -7.93978e-19)
(-0.0551239 -0.13074 -9.83989e-19)
(-0.065787 -0.119232 1.86059e-18)
(-0.0763496 -0.108158 0)
(-0.0868486 -0.0973673 -2.32068e-18)
(0.259732 -0.734919 2.30246e-19)
(0.109255 -0.494465 9.49482e-20)
(0.046042 -0.30077 -1.92431e-19)
(0.0200096 -0.222823 -9.28145e-19)
(0.00380611 -0.189655 -1.20836e-19)
(-0.00995689 -0.169613 1.17042e-18)
(-0.0229042 -0.153819 0)
(-0.0353705 -0.139923 2.44855e-18)
(-0.0474007 -0.127155 -1.90507e-18)
(-0.0590411 -0.115153 1.90478e-18)
(-0.0703639 -0.103646 -7.91676e-20)
(-0.081467 -0.0924176 -1.72877e-19)
(0.415682 -0.733116 -3.30909e-19)
(0.169358 -0.489811 -1.69059e-19)
(0.0765045 -0.29648 0)
(0.0405058 -0.219771 9.59055e-19)
(0.0197664 -0.186351 -1.64336e-18)
(0.00309051 -0.165545 2.42448e-20)
(-0.0120352 -0.149144 -2.9106e-18)
(-0.0261759 -0.13488 1.15236e-19)
(-0.0394697 -0.121922 -1.77153e-18)
(-0.052044 -0.109782 -2.04849e-18)
(-0.0640306 -0.0981421 2.2984e-18)
(-0.0755954 -0.0867174 -2.28216e-18)
(0.598131 -0.718016 1.00282e-19)
(0.238755 -0.477961 -1.31873e-19)
(0.110666 -0.287125 0)
(0.0627433 -0.212156 5.42553e-19)
(0.036489 -0.178867 5.89046e-19)
(0.0163905 -0.157937 6.96256e-19)
(-0.00117166 -0.141608 -1.24339e-19)
(-0.0170335 -0.127607 -1.7294e-19)
(-0.0315467 -0.11496 -2.09149e-18)
(-0.0449354 -0.103116 -1.87139e-19)
(-0.0574404 -0.0916821 -6.87346e-20)
(-0.0692774 -0.0803451 0)
(0.795788 -0.668367 4.03483e-19)
(0.319228 -0.454367 0)
(0.14859 -0.270377 0)
(0.0859907 -0.198646 -5.33837e-19)
(0.0531572 -0.166622 6.12022e-19)
(0.0291659 -0.146677 -1.50872e-18)
(0.00910041 -0.131391 0)
(-0.00842421 -0.118376 1.86831e-18)
(-0.0239935 -0.106609 5.35531e-20)
(-0.038031 -0.0954771 2.07404e-18)
(-0.0508582 -0.084583 -2.23947e-18)
(-0.0627637 -0.0735962 4.7444e-18)
(0.923263 -0.522904 1.58538e-18)
(0.402574 -0.40608 -2.15317e-19)
(0.187558 -0.241694 -7.29963e-19)
(0.108414 -0.177531 -1.35824e-18)
(0.0683344 -0.149222 0)
(0.0404305 -0.131972 1.49828e-18)
(0.0180604 -0.118877 -3.50875e-18)
(-0.000828878 -0.107635 1.80753e-18)
(-0.0171945 -0.0972739 2.08765e-18)
(-0.0316361 -0.0872363 0)
(-0.0445757 -0.0771695 -2.26019e-18)
(-0.0563382 -0.0667764 -4.71352e-18)
(0.933227 -0.266878 -1.18998e-18)
(0.475264 -0.318867 2.81825e-19)
(0.219467 -0.194421 7.13951e-19)
(0.126355 -0.147222 5.83024e-19)
(0.0800643 -0.126794 -7.46109e-20)
(0.0490537 -0.11444 -2.60082e-18)
(0.0250597 -0.104735 3.41838e-18)
(0.0053304 -0.0959506 7.61908e-18)
(-0.0114418 -0.0874037 -5.90306e-18)
(-0.0259992 -0.0787407 -4.26313e-18)
(-0.0388234 -0.0697251 4.44559e-18)
(-0.0502503 -0.0601243 0)
(0.866748 0.00907908 1.95255e-18)
(0.45495 -0.145518 5.00001e-19)
(0.226107 -0.121488 4.13441e-19)
(0.134114 -0.107498 1.64491e-18)
(0.0861264 -0.100559 0)
(0.0540882 -0.0952693 1.66341e-18)
(0.0296654 -0.0898693 -3.70032e-18)
(0.00982065 -0.0839507 -1.81091e-18)
(-0.0068886 -0.0774376 -1.96966e-18)
(-0.0212541 -0.070299 4.21465e-18)
(-0.0337445 -0.0624705 2.18609e-18)
(-0.0446606 -0.0538204 6.92111e-18)
(-0.656187 -0.614467 -7.1087e-18)
(-0.701889 -0.569207 7.66455e-18)
(-0.747904 -0.523127 -2.58762e-17)
(-0.79425 -0.476379 7.93946e-17)
(-0.840465 -0.428154 -3.64317e-17)
(-0.885506 -0.378609 0)
(-0.9277 -0.327523 -2.17589e-17)
(-0.963579 -0.275258 1.61706e-17)
(-1.00304 -0.223437 0)
(-1.1199 -0.185304 1.06008e-20)
(-1.25172 -0.165306 0)
(-1.1297 -0.194393 -2.3317e-18)
(-0.205065 -0.190028 -1.11315e-17)
(-0.221133 -0.174345 5.77898e-18)
(-0.237585 -0.158679 6.67511e-18)
(-0.254159 -0.14301 -3.23527e-18)
(-0.270896 -0.127217 0)
(-0.28762 -0.111592 0)
(-0.304356 -0.0962386 4.26635e-18)
(-0.322818 -0.0817389 -4.26473e-18)
(-0.357065 -0.069874 0)
(-0.454654 -0.0667784 1.80966e-18)
(-0.652979 -0.0799914 2.31766e-19)
(-0.794969 -0.165278 -1.17045e-17)
(-0.119578 -0.109295 1.42235e-18)
(-0.130154 -0.0989215 -3.06793e-18)
(-0.140949 -0.0886142 0)
(-0.15193 -0.0783787 -3.5207e-18)
(-0.163172 -0.0682467 -3.87304e-18)
(-0.174722 -0.058358 7.98953e-18)
(-0.186773 -0.0488212 -6.23e-18)
(-0.200861 -0.0397357 0)
(-0.227687 -0.0320705 0)
(-0.304924 -0.0287404 0)
(-0.495088 -0.0345624 -2.64288e-18)
(-0.703934 -0.0971799 2.62867e-18)
(-0.103126 -0.0930103 -1.26019e-18)
(-0.113305 -0.0829445 6.20593e-21)
(-0.123696 -0.0729145 0)
(-0.134382 -0.0629127 1.20572e-20)
(-0.145483 -0.0529614 0)
(-0.15712 -0.0431272 0)
(-0.169434 -0.0334535 1.87084e-18)
(-0.183482 -0.02387 -2.04256e-18)
(-0.208033 -0.0146251 2.17684e-18)
(-0.280661 -0.00572361 0)
(-0.470595 0.00716202 -2.38874e-18)
(-0.69191 0.0028073 -1.19927e-17)
(-0.097368 -0.086712 5.0913e-18)
(-0.107998 -0.0760862 -1.24752e-18)
(-0.11887 -0.0653981 2.96082e-18)
(-0.130126 -0.0546086 1.72641e-18)
(-0.141959 -0.0436869 -4.76711e-18)
(-0.154538 -0.0326756 0)
(-0.168071 -0.0215835 -1.82207e-18)
(-0.183384 -0.0103578 0)
(-0.208007 0.00145027 0)
(-0.279329 0.0173413 1.68812e-18)
(-0.471801 0.0531683 -4.37845e-20)
(-0.703118 0.113721 1.35941e-17)
(-0.0924747 -0.0812687 -2.69439e-18)
(-0.10353 -0.0700408 -7.79145e-20)
(-0.11481 -0.0586018 0)
(-0.126536 -0.0468476 0)
(-0.138958 -0.0347232 -4.91785e-18)
(-0.152355 -0.0221766 3.33541e-18)
(-0.167042 -0.00927319 3.64385e-18)
(-0.18383 0.00415021 1.99923e-18)
(-0.209161 0.0191291 -4.21453e-18)
(-0.278837 0.0428404 -1.61643e-18)
(-0.473173 0.103998 0)
(-0.716479 0.242261 1.31064e-17)
(-0.0869059 -0.0752708 -5.13054e-18)
(-0.0981576 -0.0635873 2.62575e-18)
(-0.109555 -0.0514791 2.93968e-18)
(-0.121394 -0.0388059 6.3817e-20)
(-0.133984 -0.0254144 5.38892e-20)
(-0.147739 -0.0112167 -3.35686e-18)
(-0.163112 0.00385364 -5.36786e-18)
(-0.180986 0.0200195 -1.883e-18)
(-0.207072 0.0387578 2.12333e-18)
(-0.274945 0.0709816 0)
(-0.469161 0.15994 5.62587e-18)
(-0.713822 0.380122 -7.98954e-18)
(-0.0806716 -0.0688233 5.12404e-18)
(-0.0918397 -0.0568698 -2.57913e-18)
(-0.103036 -0.0442502 -2.81092e-18)
(-0.114561 -0.0307644 -6.07354e-18)
(-0.12682 -0.0161733 6.24548e-18)
(-0.140265 -0.000271847 -5.83681e-20)
(-0.155561 0.0171877 1.04394e-17)
(-0.17387 0.036515 1.88493e-18)
(-0.200219 0.0598772 1.99661e-18)
(-0.265178 0.101714 0)
(-0.456832 0.221535 -3.43237e-18)
(-0.703061 0.531661 -7.37182e-18)
(-0.0740067 -0.0622358 0)
(-0.0848361 -0.0502207 2.65648e-18)
(-0.0955015 -0.0372926 2.80268e-18)
(-0.106326 -0.0231808 -3.00478e-18)
(-0.11769 -0.00757635 -4.41509e-20)
(-0.130128 0.00991812 -3.19778e-18)
(-0.144394 0.0297291 -3.45477e-18)
(-0.161813 0.0526201 0)
(-0.187169 0.0813638 -1.97997e-18)
(-0.247491 0.13392 -1.3385e-18)
(-0.430422 0.286351 7.47947e-18)
(-0.630784 0.658696 -5.82759e-18)
(-0.0672135 -0.0557889 0)
(-0.0774599 -0.0439289 0)
(-0.0873255 -0.0309151 0)
(-0.097087 -0.0164434 -8.61952e-18)
(-0.107084 -0.000111377 5.86209e-18)
(-0.117773 0.0186196 6.2456e-18)
(-0.12988 0.0405204 0)
(-0.144836 0.0668428 -3.38432e-18)
(-0.166896 0.101363 0)
(-0.218668 0.165188 -2.31397e-18)
(-0.384776 0.352061 -1.35985e-18)
(-0.521535 0.767705 -4.48548e-18)
(-0.0605609 -0.0497031 0)
(-0.0700238 -0.0381941 0)
(-0.0788699 -0.0253291 5.33486e-18)
(-0.087309 -0.010795 8.48778e-18)
(-0.0955692 0.00585575 -2.88204e-20)
(-0.10392 0.0252866 2.99385e-18)
(-0.112831 0.0485544 -1.6113e-18)
(-0.12332 0.077514 4.96512e-18)
(-0.138889 0.117078 3.39949e-18)
(-0.176392 0.190789 2.22334e-18)
(-0.307493 0.408265 -2.21784e-18)
(-0.391424 0.853864 -3.24221e-18)
(-0.0542487 -0.0441378 0)
(-0.0627818 -0.0331567 0)
(-0.0704722 -0.0206551 -5.27368e-18)
(-0.0774543 -0.0063591 2.63452e-18)
(-0.0837823 0.010155 -2.92855e-18)
(-0.0894505 0.0295893 -2.95936e-18)
(-0.0944484 0.0531254 2.97911e-18)
(-0.0988946 0.0829633 0)
(-0.103907 0.124468 -3.35418e-18)
(-0.116691 0.199605 -1.87573e-18)
(-0.171037 0.415361 2.69454e-18)
(-0.213025 1.20159 -4.14528e-18)
(0.307082 0.430174 -5.92179e-19)
(0.307415 0.0694768 2.05022e-19)
(0.196225 -0.0373214 0)
(0.127628 -0.0648262 -6.99589e-19)
(0.0852503 -0.0739037 1.70848e-18)
(0.055174 -0.0762962 -2.68757e-18)
(0.0317884 -0.0753096 -7.01103e-20)
(0.0126268 -0.0722532 3.89066e-18)
(-0.00355234 -0.067769 -1.98855e-18)
(-0.0174475 -0.0621688 0)
(-0.0294318 -0.055589 -8.82514e-18)
(-0.0397035 -0.0479993 8.63285e-21)
(0.139281 0.257199 6.08879e-19)
(0.190185 0.0978875 -1.50019e-19)
(0.152115 0.00560403 1.86978e-18)
(0.111097 -0.0338302 -3.49488e-18)
(0.0786775 -0.0515952 1.82351e-18)
(0.0529017 -0.0594166 -1.46997e-19)
(0.0317574 -0.061959 0)
(0.0139493 -0.061351 5.96144e-18)
(-0.00132451 -0.0586817 -1.99845e-18)
(-0.0145396 -0.0545229 0)
(-0.0259126 -0.0491925 4.36073e-18)
(-0.0354725 -0.0427575 -4.52924e-18)
(0.0668703 0.166233 -2.70282e-19)
(0.12175 0.0871532 6.55979e-20)
(0.114326 0.0228899 -1.78887e-18)
(0.0922936 -0.0143865 1.77058e-18)
(0.0693321 -0.0347642 -1.79313e-18)
(0.0485076 -0.0454379 5.57357e-18)
(0.0301774 -0.0503144 5.76794e-18)
(0.0141116 -0.0515441 -1.90061e-18)
(-2.23897e-05 -0.0503493 2.08586e-18)
(-0.0124432 -0.0474531 0)
(-0.0231939 -0.0433086 -4.33491e-18)
(-0.0320602 -0.038099 0)
(0.0366377 0.115246 -1.08513e-18)
(0.0801513 0.0723237 -1.98564e-18)
(0.0854678 0.0281758 1.9395e-18)
(0.0748807 -0.00309073 -9.36674e-19)
(0.0593185 -0.0227894 1.87746e-18)
(0.0430644 -0.0343748 -6.58298e-18)
(0.0276167 -0.0405011 -3.84954e-18)
(0.0134243 -0.0429339 3.94437e-18)
(0.000538283 -0.0428273 -6.01382e-18)
(-0.0110582 -0.0409524 0)
(-0.0212704 -0.0378639 4.26231e-18)
(-0.0296182 -0.0340194 -8.80039e-18)
(-0.0484237 -0.0392033 7.19812e-18)
(-0.0559174 -0.028888 -2.43052e-18)
(-0.0623921 -0.0169177 0)
(-0.0679006 -0.00312627 -5.3354e-18)
(-0.0723146 0.0128198 0)
(-0.0753414 0.0315298 0)
(-0.0764019 0.0540458 -2.93956e-18)
(-0.0742952 0.0822938 0)
(-0.0665568 0.120408 0)
(-0.0464986 0.18181 1.02347e-19)
(0.0183962 0.314404 2.07108e-18)
(0.367041 0.595264 1.50504e-18)
(-0.0431827 -0.0349937 -4.69865e-18)
(-0.0495422 -0.0254179 0)
(-0.0548073 -0.0140778 0)
(-0.0589342 -0.000979229 -2.6136e-18)
(-0.0616376 0.0140641 2.61294e-18)
(-0.0624008 0.0314596 0)
(-0.0602665 0.0519062 -4.0858e-18)
(-0.053383 0.0764796 -1.40146e-18)
(-0.0379602 0.10688 0)
(-0.00549309 0.146637 -6.30903e-19)
(0.0684807 0.201316 -2.08801e-18)
(0.252657 0.217207 -4.46469e-19)
(-0.0385396 -0.0315822 4.61198e-18)
(-0.0436689 -0.0227336 -2.41051e-18)
(-0.0477652 -0.0120303 -4.93695e-18)
(-0.0506734 0.000275666 2.47606e-18)
(-0.0519825 0.0142061 -5.10069e-18)
(-0.0510298 0.0299443 0)
(-0.046727 0.047784 1.06802e-17)
(-0.0371694 0.0679572 0)
(-0.0190176 0.0902737 1.35619e-18)
(0.0137704 0.113027 7.46202e-19)
(0.0720813 0.128845 1.01932e-18)
(0.16235 0.0976609 -1.55556e-20)
(-0.0345023 -0.0291158 -4.53306e-18)
(-0.038244 -0.0207904 0)
(-0.0412557 -0.0106174 4.78824e-18)
(-0.0431584 0.000890152 -7.32588e-18)
(-0.043408 0.0136247 1.24343e-17)
(-0.0412795 0.0275944 -5.03169e-18)
(-0.03573 0.0427528 -1.02823e-17)
(-0.0251551 0.0587396 0)
(-0.00711967 0.0743286 0)
(0.0216194 0.0861963 0)
(0.0640528 0.0860008 -1.24349e-18)
(0.113046 0.0524966 -9.02531e-19)
(0.0233977 0.083974 1.05654e-18)
(0.0556198 0.0582282 9.88453e-19)
(0.0644467 0.0274007 -1.90114e-18)
(0.0599809 0.00245975 0)
(0.04957 -0.0149641 9.49501e-19)
(0.037061 -0.0261179 2.89755e-18)
(0.0242473 -0.0325635 0)
(0.0118876 -0.035575 3.95139e-18)
(0.000266344 -0.0361229 0)
(-0.0105267 -0.0349418 1.03113e-17)
(-0.0203808 -0.0327464 -4.20861e-18)
(-0.0287957 -0.0305117 1.07698e-17)
(0.0153774 0.0640472 -2.5668e-19)
(0.0396891 0.0477198 1.26704e-18)
(0.0492197 0.0256981 -1.96372e-18)
(0.0482499 0.00589309 -2.90841e-18)
(0.0414346 -0.00917181 -1.4232e-21)
(0.0318704 -0.0195207 -4.72878e-18)
(0.0212909 -0.0259201 -5.81195e-18)
(0.0105762 -0.0292164 -5.86395e-18)
(0.000109968 -0.0301617 -7.97092e-18)
(-0.0100152 -0.0294313 -8.08244e-18)
(-0.0200699 -0.0279588 0)
(-0.0308097 -0.0283918 0)
(0.0107295 0.0505281 1.03577e-18)
(0.0292529 0.0396065 -1.48393e-18)
(0.0381546 0.0234835 2.41941e-18)
(0.0389867 0.00774998 -6.43187e-20)
(0.0345785 -0.00506806 3.82625e-18)
(0.0272602 -0.0143929 1.91875e-18)
(0.0185402 -0.0204639 5.70874e-18)
(0.00929005 -0.023778 1.3566e-17)
(-9.73365e-05 -0.0248586 5.8738e-18)
(-0.00963412 -0.0242671 -7.99632e-18)
(-0.0209004 -0.0235691 0)
(-0.0397444 -0.0283633 0)
(0.00783725 0.0409484 -2.03479e-18)
(0.0221585 0.0332891 4.88754e-19)
(0.0299975 0.0212027 -4.88759e-19)
(0.0316725 0.00864214 4.72969e-18)
(0.0288562 -0.00217189 -4.7023e-18)
(0.0232323 -0.0104133 -1.84945e-18)
(0.0160509 -0.0159965 -1.22581e-20)
(0.00810423 -0.019141 1.96116e-18)
(-0.000222544 -0.0201475 -7.75953e-18)
(-0.00906999 -0.0194248 7.95007e-18)
(-0.0221354 -0.0187103 -9.71291e-18)
(-0.0623079 -0.0276938 0)
(-0.0312041 -0.0279664 -8.89849e-18)
(-0.0332511 -0.0193853 -2.30511e-18)
(-0.0352889 -0.00941651 2.30499e-18)
(-0.0364012 0.00139276 -2.36057e-18)
(-0.0358585 0.0129706 -2.46701e-18)
(-0.0329378 0.0252374 6.58029e-20)
(-0.0267284 0.037923 6.2435e-18)
(-0.0160081 0.0503275 -1.24227e-18)
(0.000724603 0.0608051 0)
(0.0247735 0.0659102 0)
(0.0553837 0.0591458 1.215e-18)
(0.0838797 0.0301688 1.15105e-18)
(-0.0291862 -0.0300908 1.82549e-17)
(-0.0285326 -0.019179 0)
(-0.0297169 -0.00893036 0)
(-0.030349 0.00123632 4.65171e-18)
(-0.0293873 0.0116755 -2.31907e-18)
(-0.0261496 0.0223268 2.42172e-18)
(-0.0199176 0.0328308 0)
(-0.00986014 0.0423668 -3.57486e-18)
(0.0048214 0.0493096 -1.19997e-18)
(0.0242599 0.0508002 2.34945e-18)
(0.0464822 0.0424501 -1.43277e-18)
(0.0644621 0.0195348 -2.75786e-19)
(-0.0292328 -0.0391821 -1.14883e-17)
(-0.0241369 -0.0200904 6.99733e-18)
(-0.0245533 -0.00865317 2.22448e-18)
(-0.0249885 0.000948769 2.27647e-18)
(-0.0238831 0.0103111 2.32178e-18)
(-0.0206209 0.0195108 0)
(-0.0146906 0.0281819 1.1625e-18)
(-0.0055873 0.0355066 2.36299e-18)
(0.00698466 0.0400603 1.16053e-18)
(0.0225923 0.0396361 -2.30575e-18)
(0.0390414 0.0314674 1.12734e-18)
(0.0511079 0.0135993 -5.41743e-19)
(-0.0282679 -0.0619118 1.99994e-17)
(-0.0191255 -0.021215 -1.06781e-17)
(-0.0196459 -0.00816625 -2.25178e-18)
(-0.0202288 0.000736537 -2.50409e-20)
(-0.0191916 0.00903299 -6.67984e-18)
(-0.0160932 0.0169348 -2.25168e-18)
(-0.010633 0.0240826 6.74524e-18)
(-0.0025688 0.0297264 0)
(0.00808701 0.0326822 4.46713e-18)
(0.020629 0.0313242 0)
(0.033054 0.0239548 -2.16983e-18)
(0.0415774 0.00996117 1.06087e-18)
(0.00593353 0.0339378 4.98601e-19)
(0.0171697 0.0283466 -4.83465e-19)
(0.023893 0.0190857 4.83468e-19)
(0.0258893 0.00897951 3.79509e-18)
(0.0241181 -0.000117095 3.7669e-18)
(0.0197716 -0.007318 -3.72364e-18)
(0.0138581 -0.0123483 -1.88261e-18)
(0.00707738 -0.0152223 -5.64727e-18)
(-0.000157017 -0.016036 1.52707e-17)
(-0.00786456 -0.0148756 0)
(-0.0201187 -0.0116205 1.17573e-17)
(-0.0639244 0.0112516 0)
(0.00461144 0.0286734 4.90893e-19)
(0.0135537 0.0244598 0)
(0.019253 0.017219 0)
(0.0212949 0.00901234 2.99685e-20)
(0.020207 0.00135551 -3.69387e-18)
(0.0168276 -0.00489791 -9.27881e-18)
(0.011958 -0.00937366 -5.58207e-18)
(0.00621659 -0.0119508 0)
(4.28738e-05 -0.0125745 -7.50339e-18)
(-0.00641357 -0.0111481 1.99129e-18)
(-0.0165858 -0.00690207 6.16756e-18)
(-0.0530919 0.0176808 7.61324e-17)
(0.00366039 0.0246479 -4.82603e-19)
(0.010861 0.0213803 4.70255e-19)
(0.0156705 0.0156177 3.27231e-18)
(0.0176188 0.00888744 -6.46099e-18)
(0.0169781 0.00242135 -5.51021e-18)
(0.0143358 -0.00299865 -9.57486e-19)
(0.0103256 -0.00695809 1.09469e-17)
(0.00549666 -0.00925725 5.51799e-18)
(0.00029675 -0.00976105 -7.39662e-18)
(-0.00494874 -0.008332 0)
(-0.0124464 -0.00438158 -1.19286e-17)
(-0.0381984 0.0140374 -1.63549e-19)
(0.00294946 0.0215164 9.46793e-19)
(0.00880981 0.0189296 0)
(0.0128627 0.0142643 -3.66954e-18)
(0.0146526 0.00868869 8.88183e-19)
(0.014304 0.00320091 3.59943e-18)
(0.0122265 -0.00150032 1.53039e-17)
(0.00892608 -0.00499945 -9.01671e-18)
(0.00488446 -0.00705621 -9.01382e-18)
(0.000545925 -0.00750751 1.63266e-17)
(-0.00367662 -0.00624061 -7.58638e-18)
(-0.00907361 -0.00293645 0)
(-0.0268408 0.0102709 -5.60781e-17)
(0.00240958 0.0190579 -9.29075e-19)
(0.00721264 0.0169628 0)
(0.0106294 0.013132 0)
(0.0122373 0.00846442 2.6838e-18)
(0.0120757 0.00377785 8.91907e-18)
(0.0104386 -0.000315795 -7.96873e-18)
(0.00771869 -0.00341482 7.07522e-18)
(0.00435381 -0.00527305 -7.10747e-18)
(0.00074868 -0.00571762 -1.42559e-17)
(-0.00263756 -0.00467992 -2.91316e-21)
(-0.00655237 -0.00205627 1.08507e-17)
(-0.0190137 0.00738305 0)
(0.00199207 0.0171037 4.55655e-19)
(0.00594469 0.0153853 -1.80174e-18)
(0.00883018 0.0121886 0)
(0.0102492 0.00824222 0)
(0.0102059 0.00420799 -7.87288e-18)
(0.00891376 0.000625457 -6.12062e-18)
(0.00666806 -0.0021319 0)
(0.00388256 -0.00383129 6.96923e-18)
(0.000889854 -0.00429244 5.24129e-18)
(-0.00182858 -0.00350955 9.04389e-18)
(-0.00470247 -0.00148311 -2.07439e-17)
(-0.0135471 0.00531573 1.02358e-16)
(0.00165514 0.0155794 1.34058e-26)
(0.0049314 0.014143 2.20659e-18)
(0.00736856 0.0114366 -4.39807e-19)
(0.00860824 0.00805899 -8.64997e-19)
(0.00863708 0.00454687 1.72557e-18)
(0.00761146 0.00138532 5.99927e-18)
(0.00575602 -0.00109532 0)
(0.00345273 -0.00266959 0)
(0.000972208 -0.00316819 6.87448e-18)
(-0.00121791 -0.00262269 0)
(-0.00336784 -0.0010945 7.44774e-18)
(-0.0097057 0.00374908 -8.58105e-17)
(0.00141033 0.0146244 8.77957e-19)
(0.00413675 0.0134058 1.73791e-18)
(0.00622397 0.0110442 3.44403e-18)
(0.00729581 0.00807318 0)
(0.00736448 0.00493194 8.4652e-19)
(0.00653994 0.00206677 -2.53415e-18)
(0.0049804 -0.000224813 3.37284e-18)
(0.00307209 -0.00173782 -1.01141e-17)
(0.000988033 -0.0022909 -5.05768e-18)
(-0.000787174 -0.00197177 0)
(-0.00243552 -0.000831823 1.90508e-17)
(-0.00695747 0.00261155 9.38604e-17)
(0.00125928 0.0151816 -1.89397e-18)
(0.00373605 0.0140609 -1.88196e-18)
(0.00560573 0.0117903 -3.73035e-18)
(0.0066024 0.0089077 9.23481e-19)
(0.00668114 0.00580103 -4.67215e-21)
(0.00594523 0.00294719 -9.18851e-19)
(0.0045594 0.000584931 0)
(0.00282819 -0.0010083 -8.25149e-21)
(0.000999897 -0.00172062 -1.82942e-18)
(-0.000570626 -0.00158341 1.68411e-17)
(-0.00189284 -0.000720278 -1.99736e-17)
(-0.00508148 0.00172443 -9.00683e-17)
(0.00132971 0.0198669 1.44324e-18)
(0.00406195 0.0186326 -2.90064e-18)
(0.0060279 0.0159114 5.76286e-18)
(0.00714211 0.0123707 0)
(0.00721131 0.00852318 0)
(0.00638871 0.00491395 -8.50597e-18)
(0.00491291 0.00183933 8.47532e-18)
(0.00298705 -0.000300689 3.38611e-17)
(0.00110194 -0.00146021 2.25733e-17)
(-0.000570683 -0.00153351 2.86525e-18)
(-0.00175274 -0.000839868 -3.54654e-18)
(-0.00397836 0.00110555 0)
(0.00182201 0.0350961 0)
(0.00555252 0.0331709 6.81348e-18)
(0.00821197 0.0287549 -1.3525e-17)
(0.00971223 0.0229448 3.34766e-18)
(0.00974693 0.0165426 -3.34909e-18)
(0.00856065 0.0103883 2.6619e-17)
(0.00647482 0.00501689 -2.6549e-17)
(0.00381261 0.00107321 -5.30402e-17)
(0.00129835 -0.00132723 -5.30368e-17)
(-0.000826678 -0.001986 -5.33221e-17)
(-0.00203017 -0.00138576 6.65246e-17)
(-0.00325375 0.000306761 -1.46229e-17)
(0.00299774 0.0753611 2.43182e-17)
(0.00897028 0.0708912 -4.77058e-17)
(0.0133151 0.0622251 0)
(0.0157645 0.0507824 -9.59441e-17)
(0.015763 0.0378329 -9.63173e-17)
(0.0136685 0.0250554 0)
(0.0100783 0.0136943 2.39661e-17)
(0.0056387 0.00497438 -4.79416e-17)
(0.0015625 -0.000763641 2.34813e-21)
(-0.00161477 -0.00312772 2.40072e-17)
(-0.00287752 -0.00279884 -3.92796e-16)
(-0.00292258 -0.000690383 0)
(0.0109592 -0.0618431 -4.6598e-17)
(-0.0119541 -0.0189662 -1.59867e-17)
(-0.0150316 -0.00701557 1.1234e-17)
(-0.0160642 0.000715396 0)
(-0.0152221 0.00791447 8.72994e-18)
(-0.0123895 0.0146524 2.19124e-18)
(-0.00746615 0.0205403 -6.59852e-18)
(-0.000409328 0.0249133 -3.27398e-18)
(0.00857839 0.026808 -5.47438e-18)
(0.0187257 0.0250535 0)
(0.028309 0.0186427 2.12813e-18)
(0.0345659 0.00757274 -5.19278e-19)
(0.0163518 -0.0499273 0)
(-0.00723235 -0.0153619 1.6761e-17)
(-0.0112463 -0.005614 -1.10827e-17)
(-0.0125612 0.000830107 0)
(-0.0119056 0.00696538 6.35337e-18)
(-0.00936344 0.0126664 2.12853e-18)
(-0.00498025 0.0175164 -8.52176e-18)
(0.00115349 0.0209228 3.00999e-20)
(0.00873593 0.0221174 0)
(0.0170041 0.0202618 0)
(0.0245334 0.0147736 0)
(0.0292876 0.00591509 -5.06843e-19)
(0.0126104 -0.0352474 0)
(-0.00466661 -0.0113602 9.73722e-18)
(-0.00839136 -0.00422746 1.08268e-17)
(-0.0097114 0.00100028 0)
(-0.00917168 0.00615886 -6.23858e-18)
(-0.00690077 0.010952 4.14831e-18)
(-0.00302075 0.0149454 1.1478e-17)
(0.00229826 0.017616 -2.05228e-18)
(0.00870796 0.0183469 -3.08613e-18)
(0.0155105 0.0165468 0)
(0.0215319 0.0118859 -2.0164e-18)
(0.0252353 0.00471752 4.96969e-19)
(0.00906714 -0.0244969 0)
(-0.00316187 -0.00815957 -1.2426e-17)
(-0.00626232 -0.0030351 -1.69048e-17)
(-0.00742655 0.00116417 0)
(-0.00693458 0.00546387 -2.03069e-18)
(-0.00489931 0.00947627 -6.11613e-18)
(-0.00146734 0.0127621 8.11269e-18)
(0.00314573 0.0148708 4.06467e-18)
(0.00859171 0.0152964 1.9083e-20)
(0.0142343 0.0136339 4.96439e-19)
(0.0191212 0.00968269 1.72551e-18)
(0.0220787 0.00382237 -2.44906e-19)
(0.00647448 -0.0171596 1.46135e-17)
(-0.00222332 -0.00579092 -5.94625e-18)
(-0.00466789 -0.00208615 8.23478e-18)
(-0.0056067 0.00128458 1.98053e-18)
(-0.00511545 0.00485077 9.91135e-18)
(-0.00327639 0.00820021 -1.98459e-18)
(-0.000230547 0.010901 -1.48887e-17)
(0.00378206 0.0125823 -4.19937e-21)
(0.00843615 0.012805 3.93749e-18)
(0.013163 0.0113225 -4.87709e-18)
(0.0171835 0.00797538 0)
(0.0195862 0.00313837 9.5195e-19)
(0.00464838 -0.0121349 0)
(-0.00159299 -0.00408487 -2.84794e-18)
(-0.00345715 -0.00136774 2.00715e-18)
(-0.00415631 0.00134869 0)
(-0.00363662 0.00429752 -5.8303e-18)
(-0.00196008 0.0070907 -7.75832e-18)
(0.000762029 0.00930464 5.83047e-18)
(0.00426473 0.0106662 -9.64078e-19)
(0.00827863 0.0107486 9.64065e-19)
(0.0122683 0.00947716 3.8213e-18)
(0.0156086 0.00662831 0)
(0.0175981 0.00260201 -9.33436e-19)
(0.00333852 -0.00864208 1.07285e-16)
(-0.00114803 -0.00287767 1.90805e-17)
(-0.00253106 -0.00084625 -4.00861e-21)
(-0.00300391 0.0013558 1.89978e-18)
(-0.0024396 0.0037946 7.59372e-18)
(-0.000889676 0.00611986 9.50568e-18)
(0.00156923 0.00794125 -1.89812e-18)
(0.00465461 0.00905114 0)
(0.00815411 0.00905547 0)
(0.0115647 0.00797857 0)
(0.0143597 0.00555722 1.61737e-18)
(0.0160345 0.00217871 2.29821e-19)
(0.00238934 -0.00620399 -8.99459e-17)
(-0.000832095 -0.00205342 -2.35492e-17)
(-0.00183397 -0.000491299 0)
(-0.00210078 0.00132101 0)
(-0.00146402 0.00334765 -1.30297e-17)
(1.33041e-05 0.00531176 7.43242e-18)
(0.00230726 0.00680732 -8.35161e-18)
(0.00509103 0.00775694 -9.24187e-18)
(0.00823744 0.00768625 9.2254e-19)
(0.0112205 0.00682096 -4.54728e-19)
(0.0136147 0.00471546 -1.35758e-18)
(0.0150629 0.00184516 -8.96259e-19)
(0.00164336 -0.00450868 0)
(-0.000667794 -0.00158177 -2.73521e-18)
(-0.00140905 -0.000284916 2.06829e-18)
(-0.00147761 0.0012952 2.01669e-18)
(-0.000693982 0.00311902 8.05778e-18)
(0.000891107 0.00484717 -8.05466e-18)
(0.00324084 0.00623473 6.02702e-18)
(0.00604224 0.00701998 1.59985e-17)
(0.00914283 0.00701415 0)
(0.0120528 0.00615273 4.91699e-19)
(0.0142658 0.00426578 -4.91724e-19)
(0.0156574 0.00166533 9.70679e-19)
(0.00104465 -0.00347556 0)
(-0.000714081 -0.00145562 -3.84969e-18)
(-0.00131287 -0.000223128 -1.99284e-21)
(-0.00110356 0.00140916 2.79478e-17)
(8.97011e-05 0.00337115 -2.79114e-17)
(0.00228163 0.00518187 1.8583e-17)
(0.00528864 0.00676752 -1.55187e-18)
(0.00888789 0.00749697 -1.53996e-17)
(0.0127089 0.00764832 1.53542e-18)
(0.0162812 0.00650341 6.07973e-18)
(0.0189075 0.00454784 0)
(0.0205522 0.00178005 1.49381e-18)
(0.000338588 -0.00279917 0)
(-0.00116566 -0.00167123 0)
(-0.00162997 -0.000354198 0)
(-0.000759416 0.00173632 -5.83379e-17)
(0.00170268 0.00433405 1.23838e-16)
(0.0057069 0.00682823 -3.63652e-17)
(0.0109716 0.00899813 3.61853e-18)
(0.0170992 0.0100421 -3.61745e-18)
(0.0234924 0.0102676 0)
(0.0293348 0.00860004 -3.03129e-17)
(0.0335827 0.00593963 1.68153e-17)
(0.036228 0.00234933 -4.39125e-18)
(-0.000662921 -0.00256901 2.75459e-16)
(-0.00267842 -0.00263424 0)
(-0.002905 -0.00121792 -2.63959e-17)
(-0.000296261 0.00190801 2.37388e-16)
(0.0054317 0.00606706 -1.84481e-16)
(0.0140828 0.0102332 -5.25329e-17)
(0.025106 0.0138862 1.44033e-16)
(0.0376997 0.0157967 -2.60681e-17)
(0.0506738 0.0162332 1.29984e-17)
(0.0623543 0.0135755 1.03105e-16)
(0.0708958 0.00931794 -5.11891e-17)
(0.0763092 0.0036858 -2.53813e-17)
)
;

boundaryField
{
    rotor
    {
        type            fixedValue;
        value           nonuniform List<vector> 
48
(
(-0.00660572 -0.201784 0)
(-0.0197889 -0.20092 0)
(-0.0328873 -0.199195 0)
(-0.0458448 -0.196618 0)
(-0.0586061 -0.193198 0)
(-0.0711164 -0.188952 0)
(-0.0833222 -0.183896 0)
(-0.0951712 -0.178053 0)
(-0.106613 -0.171447 0)
(-0.117597 -0.164107 0)
(-0.128079 -0.156065 0)
(-0.138012 -0.147354 0)
(-0.147354 -0.138012 0)
(-0.156065 -0.128079 0)
(-0.164107 -0.117597 0)
(-0.171447 -0.106613 0)
(-0.178053 -0.0951712 0)
(-0.183896 -0.0833222 0)
(-0.188952 -0.0711164 0)
(-0.193198 -0.0586061 0)
(-0.196618 -0.0458448 0)
(-0.199195 -0.0328873 0)
(-0.20092 -0.0197889 0)
(-0.201784 -0.00660572 0)
(-7.70459e-10 -0.214625 0)
(-8.61102e-10 -0.239875 0)
(-9.51744e-10 -0.265125 0)
(-1.04239e-09 -0.290375 0)
(-1.13303e-09 -0.315625 0)
(-1.22367e-09 -0.340875 0)
(-1.31431e-09 -0.366125 0)
(-1.40496e-09 -0.391375 0)
(-1.4956e-09 -0.416625 0)
(-1.58624e-09 -0.441875 0)
(-1.67688e-09 -0.467125 0)
(-1.76752e-09 -0.492375 0)
(-0.214625 3.8523e-10 0)
(-0.239875 4.30551e-10 0)
(-0.265125 4.75872e-10 0)
(-0.290375 5.21193e-10 0)
(-0.315625 5.66514e-10 0)
(-0.340875 6.11835e-10 0)
(-0.366125 6.57157e-10 0)
(-0.391375 7.02478e-10 0)
(-0.416625 7.47799e-10 0)
(-0.441875 7.9312e-10 0)
(-0.467125 8.38441e-10 0)
(-0.492375 8.83762e-10 0)
)
;
    }
    stator
    {
        type            noSlip;
    }
    front
    {
        type            empty;
    }
    back
    {
        type            empty;
    }
    procBoundary2to0
    {
        type            processor;
        value           nonuniform List<vector> 
20
(
(-0.591972 0.364323 -7.49678e-19)
(-0.215935 0.249946 4.18062e-19)
(-0.0969095 0.160127 3.62726e-21)
(-0.0521134 0.111397 -3.06152e-19)
(-0.0299368 0.0825975 0)
(-0.0193396 0.0634145 2.80808e-19)
(-0.0134158 0.0502253 5.35959e-19)
(-0.00977695 0.0408087 -1.04956e-18)
(-0.0073881 0.033884 1.35653e-21)
(-0.00572965 0.0286708 1.00394e-18)
(-0.00453368 0.0246719 -4.91707e-19)
(-0.00363916 0.0215588 4.80823e-19)
(-0.00295463 0.0191068 -9.42451e-19)
(-0.00241744 0.0171565 4.61849e-19)
(-0.00198534 0.015629 1.34046e-26)
(-0.0016591 0.014686 8.87115e-19)
(-0.00147059 0.0152715 -1.92122e-18)
(-0.00156772 0.0201102 1.47909e-18)
(-0.00214566 0.0356466 0)
(-0.003523 0.0762207 1.25676e-17)
)
;
    }
    procBoundary2to3
    {
        type            processor;
        value           nonuniform List<vector> 
20
(
(0.43439 -0.308756 -5.65294e-20)
(0.260319 -0.140443 1.06019e-26)
(0.168638 -0.0677552 2.85288e-19)
(0.11708 -0.0371975 2.79639e-19)
(0.0854438 -0.0237574 5.45106e-19)
(0.0652766 -0.0155932 -7.97017e-19)
(0.0515884 -0.0108404 -1.3033e-18)
(0.0418888 -0.00787887 1.80284e-18)
(0.0347833 -0.00592606 -5.03848e-19)
(0.0294477 -0.00457328 -9.92873e-19)
(0.0253602 -0.00360046 2.45594e-19)
(0.0221789 -0.00287866 0)
(0.019671 -0.00233058 7.06091e-19)
(0.0176722 -0.00190553 -1.14973e-18)
(0.016098 -0.00157021 6.773e-27)
(0.0151055 -0.00131303 6.66528e-19)
(0.0156608 -0.00118001 -9.56702e-19)
(0.0204278 -0.00127814 0)
(0.0358639 -0.00176116 0)
(0.0758231 -0.00293605 -1.22755e-17)
)
;
    }
}


// ************************************************************************* //
