/*--------------------------------*- C++ -*----------------------------------*\
  =========                 |
  \\      /  F ield         | OpenFOAM: The Open Source CFD Toolbox
   \\    /   O peration     | Website:  https://openfoam.org
    \\  /    A nd           | Version:  6
     \\/     M anipulation  |
\*---------------------------------------------------------------------------*/
FoamFile
{
    version     2.0;
    format      ascii;
    class       volScalarField;
    location    "500";
    object      k;
}
// * * * * * * * * * * * * * * * * * * * * * * * * * * * * * * * * * * * * * //

dimensions      [0 2 -2 0 0 0 0];

internalField   nonuniform List<scalar> 
768
(
0.902124
0.944103
0.953875
0.95616
0.956745
0.956889
0.956978
0.956995
0.956993
0.956987
0.957014
0.957003
0.911518
0.963402
0.981682
0.986956
0.988342
0.988678
0.988769
0.98879
0.988801
0.988771
0.988807
0.988825
0.911282
0.966622
0.986798
0.992758
0.994338
0.994712
0.994806
0.99482
0.994856
0.994846
0.994841
0.99485
0.910684
0.967391
0.987671
0.993482
0.995019
0.995366
0.995444
0.99546
0.995495
0.995508
0.995493
0.995494
0.910477
0.96784
0.987829
0.993407
0.9948
0.995125
0.995187
0.995227
0.995178
0.995213
0.995174
0.995245
0.910934
0.968641
0.987956
0.993191
0.994486
0.994713
0.99487
0.994823
0.994895
0.994841
0.994869
0.994808
0.911409
0.969548
0.988089
0.992985
0.994111
0.99441
0.994398
0.994424
0.994419
0.99446
0.994477
0.99446
0.911892
0.970541
0.988254
0.99289
0.993825
0.99403
0.994037
0.99399
0.994078
0.994068
0.994085
0.994149
0.913148
0.971435
0.98858
0.992723
0.993601
0.993747
0.993712
0.993732
0.993825
0.993796
0.993735
0.993744
0.915832
0.972474
0.988868
0.992572
0.993251
0.993419
0.9934
0.993427
0.99353
0.993419
0.993419
0.993386
0.919304
0.974596
0.989123
0.992557
0.993132
0.993101
0.993028
0.993092
0.993227
0.993107
0.993121
0.993099
0.929796
0.979066
0.990055
0.992468
0.992774
0.992713
0.992701
0.992695
0.99282
0.992822
0.992876
0.992956
0.957014
0.957001
0.957008
0.956984
0.95697
0.956939
0.956944
0.956903
0.956897
0.956795
0.945354
0.897637
0.988796
0.98875
0.988742
0.988731
0.988734
0.988737
0.988748
0.988746
0.988482
0.985559
0.966146
0.909434
0.99485
0.994822
0.99483
0.994842
0.994847
0.994845
0.994848
0.994836
0.994532
0.99106
0.970111
0.910098
0.995497
0.995493
0.995495
0.995477
0.995503
0.995527
0.995536
0.995531
0.995232
0.991821
0.97102
0.909486
0.995208
0.99522
0.995198
0.995221
0.995207
0.995244
0.995238
0.995263
0.994991
0.991821
0.97175
0.909458
0.994864
0.994839
0.994923
0.994852
0.994866
0.994893
0.994931
0.994939
0.994736
0.991844
0.972329
0.909769
0.994407
0.994485
0.994476
0.994458
0.994515
0.994608
0.994614
0.994612
0.994417
0.991811
0.973584
0.910106
0.994148
0.99409
0.994058
0.994052
0.994086
0.994186
0.994227
0.994169
0.994047
0.991807
0.974565
0.911052
0.993719
0.993687
0.993761
0.993747
0.993713
0.993831
0.993934
0.993856
0.993762
0.991734
0.975891
0.912193
0.993307
0.993408
0.993425
0.993355
0.993436
0.993549
0.993514
0.993557
0.993595
0.991857
0.976375
0.914375
0.992983
0.992993
0.993125
0.993096
0.993039
0.993154
0.99314
0.99317
0.993208
0.991733
0.977989
0.916509
0.992828
0.992704
0.99283
0.992787
0.992732
0.992883
0.992836
0.992857
0.992921
0.991971
0.981483
0.924682
0.977468
0.988836
0.991876
0.992443
0.992523
0.99263
0.992585
0.992444
0.992412
0.992553
0.992682
0.99271
0.990493
0.99174
0.992182
0.992297
0.992507
0.992556
0.992502
0.992428
0.992292
0.992207
0.992223
0.992226
0.992545
0.992267
0.992041
0.992216
0.992421
0.992201
0.991962
0.99193
0.992123
0.992267
0.992288
0.992268
0.992225
0.992163
0.991957
0.991854
0.992068
0.991949
0.991716
0.991713
0.991935
0.992092
0.992108
0.992088
0.992681
0.992529
0.992428
0.992396
0.992533
0.992739
0.992615
0.992725
0.992839
0.992535
0.989062
0.96923
0.99219
0.99218
0.992139
0.992099
0.99212
0.992362
0.992367
0.992429
0.992429
0.992512
0.991679
0.988223
0.992086
0.992075
0.992014
0.991856
0.991853
0.992087
0.992089
0.991997
0.992046
0.992262
0.992145
0.991368
0.991885
0.991722
0.991685
0.991641
0.991661
0.991862
0.991878
0.991898
0.991893
0.992004
0.992012
0.991954
0.991959
0.991782
0.99166
0.991666
0.991684
0.991595
0.991551
0.991552
0.991579
0.991606
0.991605
0.991589
0.991696
0.991492
0.991438
0.991435
0.991434
0.991408
0.991396
0.991369
0.991367
0.991374
0.991379
0.99114
0.991503
0.991291
0.991259
0.991216
0.991234
0.991225
0.99123
0.991196
0.991206
0.991204
0.990967
0.988121
0.991338
0.991113
0.991056
0.991053
0.991069
0.991049
0.991056
0.991035
0.991041
0.990959
0.989083
0.973621
0.991572
0.991552
0.991529
0.991498
0.991509
0.991555
0.991581
0.991561
0.991567
0.99158
0.991651
0.991659
0.991039
0.991282
0.991335
0.991326
0.99132
0.991346
0.991347
0.991346
0.991369
0.991349
0.991389
0.991448
0.987719
0.990508
0.991084
0.991147
0.991155
0.991169
0.99117
0.99119
0.99118
0.99119
0.991197
0.991227
0.972949
0.987901
0.990644
0.990967
0.990998
0.991007
0.991021
0.991029
0.990998
0.991019
0.991043
0.991063
0.991163
0.99095
0.99091
0.990898
0.990918
0.990907
0.99089
0.990888
0.990884
0.990548
0.984567
0.935603
0.991001
0.9908
0.990763
0.990758
0.99079
0.990771
0.990755
0.990757
0.990748
0.990313
0.983218
0.928884
0.990864
0.990659
0.990644
0.990635
0.990657
0.99063
0.990624
0.990626
0.990617
0.990178
0.983122
0.928645
0.990744
0.990528
0.990511
0.990521
0.990538
0.990511
0.990517
0.99051
0.990509
0.990101
0.983402
0.929645
0.990621
0.990421
0.990415
0.990417
0.990424
0.990401
0.99041
0.9904
0.990394
0.990027
0.983735
0.930886
0.990512
0.990312
0.990315
0.990317
0.990317
0.990297
0.990309
0.990302
0.990293
0.989968
0.984076
0.93217
0.990422
0.990223
0.990212
0.99021
0.990217
0.990199
0.990207
0.990204
0.990198
0.989906
0.984383
0.933401
0.990327
0.990136
0.990116
0.990114
0.990117
0.990113
0.990116
0.990115
0.990111
0.989851
0.98467
0.934609
0.989404
0.989102
0.989076
0.989044
0.989104
0.989063
0.989094
0.98907
0.989079
0.98884
0.983993
0.935734
0.981416
0.980605
0.98051
0.980509
0.980535
0.980534
0.980532
0.980527
0.980532
0.980332
0.976197
0.936478
0.940341
0.937748
0.93755
0.937539
0.937536
0.937517
0.937498
0.937503
0.937513
0.937395
0.935281
0.911265
0.842373
0.840814
0.840655
0.840655
0.8406
0.840533
0.840448
0.840445
0.840453
0.840396
0.838958
0.823867
0.935699
0.983224
0.990051
0.990781
0.990849
0.990857
0.990859
0.990863
0.99084
0.990872
0.990879
0.990903
0.929286
0.981809
0.989748
0.990628
0.990705
0.990718
0.990709
0.990724
0.990707
0.990735
0.990739
0.990773
0.929001
0.981759
0.989638
0.990506
0.99058
0.990586
0.990584
0.990611
0.990594
0.990606
0.990614
0.990645
0.930008
0.982071
0.98959
0.990394
0.990469
0.99047
0.99047
0.990497
0.990493
0.990491
0.990503
0.990526
0.931226
0.982465
0.989566
0.990299
0.990363
0.990373
0.990364
0.990381
0.990386
0.990379
0.990391
0.990415
0.932448
0.98285
0.989545
0.990206
0.990264
0.990276
0.990267
0.990281
0.990292
0.990275
0.990287
0.990306
0.933691
0.98322
0.989526
0.990122
0.990175
0.990183
0.990176
0.990189
0.990185
0.99018
0.990189
0.990211
0.934896
0.983565
0.989503
0.99004
0.990084
0.990092
0.99009
0.990101
0.990097
0.990103
0.990103
0.990122
0.936072
0.983071
0.98855
0.989005
0.989063
0.989049
0.989071
0.989062
0.989068
0.989067
0.989066
0.989086
0.937079
0.975885
0.980132
0.980485
0.980525
0.980535
0.980544
0.980547
0.980541
0.980554
0.980561
0.980575
0.914051
0.935013
0.937292
0.937489
0.937528
0.93757
0.937574
0.937563
0.937571
0.937585
0.937591
0.937612
0.825516
0.839085
0.840325
0.840426
0.840494
0.840542
0.84057
0.840557
0.840645
0.840653
0.840582
0.84086
)
;

boundaryField
{
    rotor
    {
        type            kqRWallFunction;
        value           nonuniform List<scalar> 
48
(
0.902124
0.944103
0.953875
0.95616
0.956745
0.956889
0.956978
0.956995
0.956993
0.956987
0.957014
0.957003
0.957014
0.957001
0.957008
0.956984
0.95697
0.956939
0.956944
0.956903
0.956897
0.956795
0.945354
0.897637
0.897637
0.909434
0.910098
0.909486
0.909458
0.909769
0.910106
0.911052
0.912193
0.914375
0.916509
0.924682
0.902124
0.911518
0.911282
0.910684
0.910477
0.910934
0.911409
0.911892
0.913148
0.915832
0.919304
0.929796
)
;
    }
    stator
    {
        type            kqRWallFunction;
        value           nonuniform List<scalar> 
48
(
0.842373
0.840814
0.840655
0.840655
0.8406
0.840533
0.840448
0.840445
0.840453
0.840396
0.838958
0.823867
0.825516
0.839085
0.840325
0.840426
0.840494
0.840542
0.84057
0.840557
0.840645
0.840653
0.840582
0.84086
0.935699
0.929286
0.929001
0.930008
0.931226
0.932448
0.933691
0.934896
0.936072
0.937079
0.914051
0.825516
0.935603
0.928884
0.928645
0.929645
0.930886
0.93217
0.933401
0.934609
0.935734
0.936478
0.911265
0.823867
)
;
    }
    front
    {
        type            empty;
    }
    back
    {
        type            empty;
    }
    procBoundary3to1
    {
        type            processor;
        value           nonuniform List<scalar> 
20
(
0.976268
0.99017
0.992514
0.992233
0.991951
0.991702
0.991496
0.991318
0.991167
0.991008
0.990875
0.990762
0.990627
0.990516
0.99042
0.990329
0.989405
0.98139
0.940287
0.84221
)
;
    }
    procBoundary3to2
    {
        type            processor;
        value           nonuniform List<scalar> 
20
(
0.969958
0.988438
0.991495
0.99217
0.991734
0.991471
0.991259
0.991071
0.990917
0.99078
0.990647
0.990522
0.990414
0.990311
0.990208
0.990118
0.989082
0.980576
0.93768
0.841034
)
;
    }
}


// ************************************************************************* //
