/*--------------------------------*- C++ -*----------------------------------*\
  =========                 |
  \\      /  F ield         | OpenFOAM: The Open Source CFD Toolbox
   \\    /   O peration     | Website:  https://openfoam.org
    \\  /    A nd           | Version:  6
     \\/     M anipulation  |
\*---------------------------------------------------------------------------*/
FoamFile
{
    version     2.0;
    format      ascii;
    class       volScalarField;
    location    "500";
    object      nut;
}
// * * * * * * * * * * * * * * * * * * * * * * * * * * * * * * * * * * * * * //

dimensions      [0 2 -1 0 0 0 0];

internalField   nonuniform List<scalar> 
768
(
0.000127147
0.000254973
0.000260278
0.000261527
0.000261847
0.000261926
0.000261974
0.000261984
0.000261983
0.000261979
0.000261994
0.000261988
0.000145047
0.00059346
0.00129974
0.00168123
0.00178442
0.00180488
0.00180877
0.00180934
0.00180925
0.0018089
0.00180873
0.00180847
0.000160205
0.000745006
0.0021369
0.00335234
0.00377434
0.00387566
0.00389469
0.0038966
0.00389814
0.00389718
0.00389395
0.00389239
0.00017521
0.000845094
0.00245571
0.00383593
0.00430193
0.00440395
0.00442449
0.00442823
0.00442987
0.0044295
0.00442895
0.00442863
0.000190341
0.000941529
0.00266739
0.00399021
0.00439478
0.00448004
0.00449667
0.00449987
0.0045004
0.00450017
0.0044997
0.00450027
0.000205759
0.00104105
0.00284104
0.00408579
0.0044259
0.00449523
0.00450775
0.00450952
0.0045098
0.00451032
0.00450988
0.00450959
0.000221218
0.00114346
0.00300281
0.0041562
0.00444684
0.00450114
0.00451089
0.00451188
0.00451128
0.00451127
0.00451164
0.0045121
0.000236713
0.00124732
0.00314784
0.00421823
0.00445926
0.00450514
0.0045124
0.00451339
0.004513
0.00451202
0.00451224
0.00451286
0.000252669
0.00135012
0.00327254
0.00425813
0.0044713
0.00450622
0.00451169
0.0045138
0.00451471
0.00451445
0.00451491
0.00451512
0.000269551
0.00144664
0.00337266
0.00429218
0.00447775
0.00450727
0.00451365
0.00451447
0.0045155
0.00451435
0.00451371
0.00451356
0.000287111
0.00152825
0.00343939
0.00431862
0.00448142
0.00450854
0.00451474
0.00451514
0.00451467
0.00451502
0.00451655
0.00451647
0.000309569
0.00169084
0.00360507
0.00436067
0.00448789
0.00450798
0.00451378
0.00451611
0.00451532
0.00451392
0.00451455
0.0045158
0.000261994
0.000261987
0.000261991
0.000261978
0.00026197
0.000261953
0.000261956
0.000261933
0.00026193
0.000261874
0.000255649
0.000125885
0.00180762
0.00180631
0.00180515
0.00180411
0.00180332
0.00180274
0.00180249
0.00180266
0.00180246
0.00135736
0.000593828
0.000144384
0.00389079
0.00388899
0.00388771
0.0038885
0.00388968
0.00388755
0.00388448
0.00388359
0.00388299
0.00235004
0.000753361
0.000159789
0.004428
0.00442738
0.0044269
0.00442721
0.00442713
0.00442722
0.00442644
0.00442585
0.00442329
0.00273106
0.000857016
0.00017475
0.00450017
0.00449988
0.00449974
0.00449968
0.00450007
0.0045
0.00449978
0.00449958
0.00449737
0.00295658
0.000960833
0.000189915
0.00451014
0.00451013
0.00450992
0.00450955
0.00450981
0.00451018
0.0045102
0.00451043
0.00450824
0.00317437
0.00106357
0.000205233
0.00451256
0.00451319
0.00451308
0.00451235
0.0045121
0.00451267
0.00451263
0.00451257
0.00451083
0.00333365
0.0011801
0.000220586
0.00451302
0.00451351
0.00451365
0.00451256
0.00451247
0.00451316
0.00451307
0.00451334
0.00451233
0.00350505
0.00129155
0.000236277
0.00451512
0.00451457
0.0045141
0.00451396
0.00451347
0.00451446
0.0045162
0.00451531
0.00451353
0.00363525
0.00142594
0.000252141
0.00451387
0.0045146
0.00451473
0.00451512
0.00451625
0.00451564
0.00451494
0.00451497
0.00451431
0.00376414
0.00155646
0.000268694
0.00451422
0.00451448
0.00451518
0.00451518
0.00451647
0.00451552
0.0045147
0.00451626
0.00451524
0.00391563
0.00167848
0.000285367
0.00451594
0.00451595
0.00451569
0.00451554
0.00451664
0.00451576
0.00451563
0.00451724
0.00451669
0.00398666
0.00194541
0.000306173
0.0014661
0.00303404
0.00413897
0.00444041
0.00450253
0.00451176
0.0045157
0.00451673
0.0045162
0.00451596
0.00451777
0.00451972
0.00337736
0.00406408
0.00439311
0.00449215
0.00451453
0.00451639
0.00451817
0.00451733
0.00451441
0.0045158
0.00451856
0.00451863
0.00425712
0.00441383
0.00448268
0.00451141
0.00451781
0.00451677
0.00451832
0.00451589
0.00451516
0.0045185
0.00452118
0.00451901
0.00446588
0.00449477
0.00450848
0.00451384
0.00451593
0.00451704
0.00451846
0.0045184
0.00451744
0.00451724
0.0045175
0.00451715
0.00451769
0.00451475
0.00451519
0.00451472
0.00451483
0.00451579
0.00451653
0.00451851
0.00451718
0.00435226
0.00325827
0.00117808
0.00451821
0.00451806
0.00451748
0.00451722
0.00451683
0.00451646
0.00451504
0.00451779
0.00451829
0.00447578
0.00415597
0.00299817
0.00451762
0.00451981
0.00451747
0.00451637
0.00451539
0.00451483
0.00451685
0.00451812
0.00451889
0.00450951
0.00443518
0.004138
0.00451553
0.00451683
0.0045187
0.00451865
0.00451838
0.00451712
0.00451802
0.00451735
0.00451865
0.00451982
0.00450301
0.00444625
0.00450831
0.00451367
0.00451655
0.00451826
0.00451922
0.00451856
0.0045188
0.00451887
0.00451877
0.0045189
0.00451893
0.00451887
0.00451663
0.00451852
0.00451905
0.00451926
0.00451986
0.00451943
0.00451957
0.00451961
0.00451944
0.00451948
0.00451949
0.00451704
0.00451907
0.00451981
0.00451973
0.00451925
0.00451988
0.00451993
0.0045201
0.00451981
0.0045199
0.00451989
0.00451769
0.00353464
0.00451956
0.00452038
0.0045201
0.00451994
0.00452029
0.00452042
0.00452052
0.00452014
0.00452039
0.00451965
0.00385736
0.00166365
0.00451863
0.00451878
0.00451896
0.00451875
0.00451896
0.00451883
0.00451918
0.00451888
0.00451914
0.00451974
0.00451571
0.00450523
0.00451643
0.00451893
0.00451946
0.00451941
0.0045196
0.00451948
0.00451955
0.00451949
0.00451941
0.00451995
0.00451869
0.00451695
0.00342459
0.00435845
0.00450526
0.00451876
0.00451996
0.00451995
0.00451996
0.00451989
0.00451964
0.00452004
0.00451979
0.00451956
0.00164285
0.00379292
0.00444689
0.00451456
0.00451993
0.00452035
0.00452029
0.00452056
0.00451985
0.00452033
0.00452025
0.00452029
0.00452007
0.00452102
0.00452072
0.0045204
0.00452068
0.00452069
0.00452081
0.00452072
0.00452067
0.00441275
0.00286791
0.000458064
0.0045205
0.00452109
0.00452106
0.00452081
0.00452107
0.004521
0.00452112
0.00452111
0.00452092
0.00438971
0.00280921
0.000467347
0.00452071
0.00452121
0.00452132
0.00452132
0.00452144
0.00452122
0.00452129
0.0045214
0.00452127
0.00439666
0.00287235
0.000482938
0.00452106
0.00452166
0.00452159
0.00452157
0.00452175
0.00452151
0.00452163
0.00452169
0.00452155
0.00441026
0.00295565
0.000499843
0.00452131
0.00452186
0.00452187
0.00452196
0.00452212
0.0045218
0.00452194
0.00452195
0.00452184
0.00442372
0.00303927
0.000517087
0.00452165
0.00452209
0.00452211
0.00452226
0.00452226
0.00452208
0.00452214
0.00452217
0.00452211
0.00443578
0.00311955
0.000534466
0.00452185
0.00452234
0.00452237
0.00452237
0.00452232
0.0045223
0.00452236
0.0045224
0.00452236
0.00444628
0.00319567
0.000551873
0.00452208
0.00452258
0.00452253
0.0045225
0.00452246
0.00452247
0.00452258
0.00452265
0.00452258
0.0044554
0.00326779
0.000569338
0.0045148
0.0045141
0.00451399
0.00451403
0.00451397
0.00451406
0.00451409
0.00451412
0.00451405
0.00445471
0.00332962
0.000586784
0.00262531
0.00254834
0.00254318
0.00254257
0.00254295
0.00254274
0.0025427
0.00254293
0.00254366
0.00252653
0.00213392
0.000603816
0.000875248
0.000867019
0.000866213
0.000865982
0.000865794
0.000865685
0.000865609
0.000865669
0.000865799
0.000863881
0.000837673
0.000586986
0.000198241
0.000197508
0.000197434
0.000197434
0.000197408
0.000197377
0.000197337
0.000197335
0.000197339
0.000197312
0.000196638
0.000189627
0.000458157
0.0028754
0.00434872
0.00450833
0.00451971
0.00452085
0.00452072
0.00452095
0.00452042
0.00452077
0.00452084
0.00452074
0.000467752
0.00281739
0.00433108
0.00450695
0.00451994
0.00452117
0.00452115
0.0045211
0.00452109
0.0045212
0.00452115
0.00452089
0.000483309
0.00287718
0.00434192
0.0045081
0.00452032
0.00452139
0.00452142
0.00452132
0.00452141
0.00452152
0.00452146
0.0045213
0.000500234
0.00295616
0.00436053
0.00451011
0.00452076
0.00452164
0.00452154
0.00452158
0.00452165
0.00452167
0.00452156
0.00452162
0.000517465
0.0030371
0.00437852
0.00451207
0.00452124
0.00452187
0.00452182
0.0045218
0.00452189
0.00452194
0.00452194
0.00452199
0.000534785
0.00311573
0.0043946
0.00451379
0.00452163
0.00452209
0.00452214
0.00452216
0.00452223
0.00452216
0.00452219
0.00452215
0.000552216
0.00319049
0.00440921
0.00451531
0.004522
0.00452233
0.00452241
0.00452244
0.00452248
0.00452229
0.00452232
0.00452236
0.000569687
0.00326181
0.00442194
0.0045166
0.0045223
0.00452257
0.00452263
0.00452259
0.00452262
0.00452259
0.00452255
0.00452258
0.000587208
0.00332406
0.00442471
0.004509
0.00451384
0.00451411
0.00451415
0.0045141
0.00451409
0.00451411
0.00451404
0.0045141
0.000604592
0.00218481
0.00252149
0.00254352
0.0025456
0.00254638
0.00254643
0.00254685
0.00254692
0.00254781
0.00254753
0.00254581
0.000590581
0.000840497
0.000864437
0.000866166
0.000866333
0.000866768
0.000866923
0.00086704
0.000866901
0.000867001
0.000867013
0.000867647
0.000190386
0.000196697
0.000197279
0.000197326
0.000197358
0.00019738
0.000197394
0.000197388
0.000197429
0.000197433
0.000197399
0.00019753
)
;

boundaryField
{
    rotor
    {
        type            nutkWallFunction;
        Cmu             0.09;
        kappa           0.41;
        E               9.8;
        value           nonuniform List<scalar> 
48
(
1.52741e-05
3.2769e-05
3.29558e-05
3.29993e-05
3.30104e-05
3.30131e-05
3.30148e-05
3.30152e-05
3.30151e-05
3.3015e-05
3.30155e-05
3.30153e-05
3.30155e-05
3.30153e-05
3.30154e-05
3.3015e-05
3.30147e-05
3.30141e-05
3.30142e-05
3.30134e-05
3.30133e-05
3.30114e-05
3.2793e-05
1.52219e-05
1.52219e-05
1.78104e-05
2.02373e-05
2.26167e-05
2.49775e-05
2.73199e-05
2.96416e-05
3.19557e-05
3.42574e-05
3.65669e-05
3.8864e-05
4.12935e-05
1.52741e-05
1.78369e-05
2.02537e-05
2.26347e-05
2.49939e-05
2.734e-05
2.96655e-05
3.19721e-05
3.4277e-05
3.65984e-05
3.89273e-05
4.1414e-05
)
;
    }
    stator
    {
        type            nutkWallFunction;
        Cmu             0.09;
        kappa           0.41;
        E               9.8;
        value           nonuniform List<scalar> 
48
(
2.99508e-05
2.99196e-05
2.99164e-05
2.99164e-05
2.99153e-05
2.9914e-05
2.99123e-05
2.99122e-05
2.99124e-05
2.99112e-05
2.98824e-05
2.95781e-05
2.96115e-05
2.9885e-05
2.99098e-05
2.99118e-05
2.99132e-05
2.99142e-05
2.99147e-05
2.99145e-05
2.99162e-05
2.99164e-05
2.9915e-05
2.99205e-05
6.13109e-05
6.32389e-05
6.53588e-05
6.75164e-05
6.96759e-05
7.18305e-05
7.3981e-05
7.61254e-05
7.82642e-05
8.03917e-05
8.14824e-05
2.96115e-05
6.13078e-05
6.32253e-05
6.53464e-05
6.75034e-05
6.96634e-05
7.182e-05
7.39697e-05
7.6114e-05
7.82504e-05
8.03666e-05
8.13617e-05
2.95781e-05
)
;
    }
    front
    {
        type            empty;
    }
    back
    {
        type            empty;
    }
    procBoundary3to1
    {
        type            processor;
        value           nonuniform List<scalar> 
20
(
0.00146241
0.00332691
0.00425294
0.004462
0.00450758
0.00451686
0.00451909
0.00451981
0.00452014
0.0045204
0.00452082
0.00452107
0.00452145
0.00452171
0.00452195
0.00452228
0.00451484
0.00262295
0.000875047
0.000198165
)
;
    }
    procBoundary3to2
    {
        type            processor;
        value           nonuniform List<scalar> 
20
(
0.00117851
0.00304196
0.00415366
0.00445032
0.00450579
0.0045172
0.00451944
0.0045202
0.00452063
0.00452093
0.00452127
0.0045216
0.00452196
0.00452209
0.00452232
0.00452253
0.00451405
0.00254589
0.000867866
0.000197612
)
;
    }
}


// ************************************************************************* //
