/*--------------------------------*- C++ -*----------------------------------*\
  =========                 |
  \\      /  F ield         | OpenFOAM: The Open Source CFD Toolbox
   \\    /   O peration     | Website:  https://openfoam.org
    \\  /    A nd           | Version:  6
     \\/     M anipulation  |
\*---------------------------------------------------------------------------*/
FoamFile
{
    version     2.0;
    format      ascii;
    class       volScalarField;
    location    "500";
    object      p;
}
// * * * * * * * * * * * * * * * * * * * * * * * * * * * * * * * * * * * * * //

dimensions      [0 2 -2 0 0 0 0];

internalField   nonuniform List<scalar> 
768
(
-0.638482
0.128365
1.13384
2.1304
3.10056
4.04181
4.95102
5.83295
6.68835
7.5248
8.34489
9.15732
-0.704937
0.157888
1.19546
2.21109
3.19009
4.13133
5.03501
5.90623
6.74841
7.56875
8.37207
9.16624
-0.685089
0.245562
1.3249
2.36357
3.35039
4.28743
5.1782
6.02997
6.84843
7.64197
8.41674
9.18128
-0.575243
0.417374
1.53176
2.58648
3.57339
4.49762
5.36674
6.1902
6.97645
7.73485
8.47322
9.2003
-0.37505
0.677994
1.81993
2.88047
3.85673
4.75667
5.59456
6.37993
7.1268
7.84231
8.53891
9.22192
-0.0771828
1.03355
2.19218
3.24591
4.19536
5.0604
5.85331
6.59461
7.29189
7.96208
8.6091
9.24733
0.33085
1.49262
2.65192
3.6785
4.58615
5.39818
6.13847
6.82351
7.46945
8.08615
8.68491
9.27225
0.870518
2.06847
3.20348
4.17661
5.01892
5.76396
6.43859
7.06254
7.65062
8.21373
8.76084
9.29896
1.57033
2.77929
3.84746
4.73336
5.48562
6.14708
6.74666
7.30382
7.83178
8.34012
8.83615
9.3255
2.47783
3.64268
4.58391
5.33659
5.97234
6.53579
7.05328
7.54063
8.0079
8.46223
8.9087
9.35125
3.66914
4.67629
5.39339
5.96458
6.46085
6.91691
7.34936
7.76689
8.17503
8.57748
8.97708
9.37571
5.30037
5.87122
6.23799
6.58366
6.92897
7.27668
7.6262
7.97715
8.3295
8.6836
9.03985
9.39828
9.96562
10.7785
11.5999
12.4376
13.2953
14.1789
15.0909
16.0339
17.0065
18.0039
19.0102
19.7765
9.95671
10.7514
11.5559
12.3777
13.222
14.0953
15.0017
15.9452
16.9269
17.9438
18.9822
19.8446
9.94188
10.7069
11.4828
12.2778
13.0985
13.9525
14.8461
15.7857
16.7754
17.8158
18.8963
19.8266
9.92337
10.6509
11.3903
12.1501
12.9385
13.7645
14.6365
15.5638
16.5539
17.6109
18.7264
19.7188
9.90275
10.5862
11.2835
12.0007
12.7494
13.5378
14.3788
15.2825
16.2618
17.3249
18.4677
19.5216
9.87916
10.5175
11.1658
11.8368
12.5372
13.2807
14.0783
14.9463
15.9
16.9556
18.1169
19.2279
9.85695
10.4448
11.0443
11.663
12.3114
13.0004
13.7447
14.5613
15.4727
16.5028
17.6629
18.8278
9.83437
10.3731
10.9215
11.4872
12.0785
12.707
13.3864
14.1366
14.9835
15.9601
17.0989
18.298
9.81306
10.3033
10.8014
11.3129
11.8453
12.4076
13.0128
13.6799
14.4375
15.3283
16.3985
17.6115
9.79303
10.2369
10.6862
11.1445
11.6173
12.1105
12.6344
13.2042
13.8462
14.6042
15.5513
16.7183
9.77468
10.1751
10.5781
10.9856
11.3997
11.824
12.2633
12.7265
13.2299
13.8085
14.5315
15.5435
9.75818
10.1187
10.479
10.8388
11.1977
11.5559
11.9127
12.2681
12.6217
12.9761
13.352
13.9308
7.812
7.11895
7.03285
7.15092
7.35516
7.60366
7.87765
8.16784
8.46924
8.77929
9.09634
9.41869
8.75384
7.94207
7.65876
7.62715
7.72342
7.89025
8.09965
8.33653
8.59268
8.86335
9.14561
9.43646
9.11909
8.44421
8.11481
8.00633
8.03003
8.13479
8.29148
8.48307
8.6997
8.93561
9.18734
9.45149
9.28987
8.75637
8.44199
8.30052
8.2793
8.33911
8.45407
8.60789
8.79035
8.99566
9.22067
9.46284
9.74382
10.0685
10.39
10.706
11.0144
11.3119
11.5935
11.85
12.063
12.191
12.1168
11.4415
9.73165
10.025
10.3119
10.5887
10.8519
11.0961
11.3131
11.488
11.5932
11.572
11.3005
10.505
9.72197
9.9886
10.2449
10.4869
10.7104
10.9091
11.0732
11.1858
11.2181
11.1192
10.8008
10.1392
9.71528
9.95996
10.1894
10.4006
10.5895
10.7501
10.8721
10.9393
10.9263
10.7938
10.4889
9.96605
9.38236
8.95881
8.67676
8.52686
8.47964
8.50776
8.59034
8.71287
8.86583
9.04385
9.24509
9.46983
9.43815
9.09552
8.84829
8.70097
8.63961
8.64568
8.7032
8.79982
8.92709
9.08025
9.25912
9.46908
9.47447
9.1914
8.97497
8.83565
8.76727
8.75812
8.7962
8.87134
8.976
9.10578
9.26135
9.45614
9.4994
9.26065
9.07058
8.94041
8.86914
8.84941
8.87229
8.92949
9.01413
9.1215
9.25093
9.41654
9.71267
9.93965
10.1451
10.3285
10.4876
10.6164
10.7056
10.7406
10.7009
10.5589
10.2854
9.87064
9.71688
9.92918
10.1118
10.27
10.4028
10.5053
10.5689
10.5814
10.5269
10.387
10.147
9.81191
9.73321
9.92977
10.0889
10.2232
10.3329
10.4134
10.4571
10.4539
10.3918
10.2589
10.0492
9.77278
9.77538
9.94274
10.0752
10.1866
10.2759
10.338
10.366
10.3517
10.2862
10.1621
9.97804
9.74529
9.51717
9.31194
9.14332
9.02254
8.95074
8.92358
8.93454
8.97673
9.04379
9.13008
9.23015
9.32713
9.53019
9.35068
9.19968
9.08726
9.01613
8.9837
8.98521
9.01487
9.06675
9.13446
9.2098
9.27203
9.53991
9.38033
9.24349
9.13861
9.06871
9.03253
9.02653
9.04583
9.08487
9.13701
9.19317
9.23527
9.54727
9.40332
9.278
9.17944
9.11094
9.07206
9.06004
9.07082
9.09919
9.13866
9.18043
9.20976
9.5529
9.42122
9.30515
9.21199
9.14492
9.10403
9.08726
9.09108
9.11075
9.1401
9.17109
9.19214
9.55723
9.43525
9.32666
9.23794
9.17207
9.12974
9.10913
9.10736
9.11998
9.14137
9.16431
9.17959
9.56055
9.44619
9.34361
9.25861
9.19363
9.1503
9.12659
9.12041
9.12742
9.14262
9.15953
9.17085
9.56309
9.45471
9.35697
9.27481
9.21057
9.16645
9.14033
9.13068
9.1333
9.14374
9.15619
9.16463
9.56501
9.46122
9.36718
9.28764
9.22333
9.17905
9.15073
9.13868
9.13781
9.14477
9.15391
9.16035
9.56642
9.46605
9.37502
9.29667
9.23323
9.18806
9.15872
9.14447
9.14131
9.14558
9.15242
9.15739
9.56741
9.46952
9.38029
9.30297
9.24009
9.19443
9.16431
9.14863
9.14383
9.14628
9.15153
9.1555
9.56788
9.47112
9.38258
9.30571
9.24327
9.19738
9.16698
9.15066
9.14515
9.14679
9.15133
9.15485
9.86704
9.96533
10.0682
10.1581
10.2293
10.276
10.2917
10.2696
10.2031
10.0878
9.92486
9.72519
9.92376
9.98724
10.065
10.136
10.1916
10.2254
10.2312
10.2035
10.1373
10.0301
9.88438
9.71013
9.96189
10.005
10.0633
10.1184
10.1609
10.1839
10.182
10.1502
10.0849
9.98483
9.85312
9.69862
9.98837
10.0186
10.0623
10.1044
10.1359
10.1502
10.142
10.1072
10.0431
9.94915
9.82875
9.68973
10.0068
10.0286
10.0614
10.0931
10.1156
10.1227
10.1096
10.0726
10.0097
9.92091
9.80964
9.68279
10.0199
10.0359
10.0604
10.0839
10.0992
10.1006
10.0834
10.0448
9.98306
9.8986
9.79463
9.67738
10.0291
10.041
10.0593
10.0765
10.086
10.0828
10.0625
10.0227
9.96203
9.88106
9.7829
9.67313
10.0356
10.0445
10.0582
10.0705
10.0755
10.0687
10.046
10.0054
9.94558
9.86742
9.77379
9.66985
10.04
10.0469
10.0571
10.0659
10.0672
10.058
10.0333
9.99224
9.93299
9.85707
9.76687
9.66735
10.0431
10.0484
10.0563
10.0623
10.0613
10.0499
10.024
9.98236
9.92377
9.8494
9.7618
9.66549
10.0451
10.0494
10.0556
10.0597
10.0571
10.0442
10.0175
9.97552
9.91735
9.84409
9.75828
9.66425
10.0459
10.0497
10.0552
10.0584
10.0551
10.0416
10.0146
9.97245
9.91449
9.84172
9.75672
9.66374
)
;

boundaryField
{
    rotor
    {
        type            zeroGradient;
    }
    stator
    {
        type            zeroGradient;
    }
    front
    {
        type            empty;
    }
    back
    {
        type            empty;
    }
    procBoundary3to1
    {
        type            processor;
        value           nonuniform List<scalar> 
20
(
7.82444
8.75423
9.11436
9.28303
9.37476
9.43056
9.46729
9.49289
9.51148
9.52536
9.53596
9.54416
9.55059
9.55559
9.55951
9.56253
9.56477
9.5665
9.5677
9.56832
)
;
    }
    procBoundary3to2
    {
        type            processor;
        value           nonuniform List<scalar> 
20
(
11.4795
10.5321
10.1613
9.98526
9.88775
9.82734
9.78666
9.75783
9.73643
9.72023
9.70759
9.69773
9.68986
9.68365
9.67867
9.67477
9.67177
9.66951
9.66793
9.66725
)
;
    }
}


// ************************************************************************* //
