/*--------------------------------*- C++ -*----------------------------------*\
  =========                 |
  \\      /  F ield         | OpenFOAM: The Open Source CFD Toolbox
   \\    /   O peration     | Website:  https://openfoam.org
    \\  /    A nd           | Version:  6
     \\/     M anipulation  |
\*---------------------------------------------------------------------------*/
FoamFile
{
    version     2.0;
    format      ascii;
    class       surfaceScalarField;
    location    "500";
    object      phi;
}
// * * * * * * * * * * * * * * * * * * * * * * * * * * * * * * * * * * * * * //

dimensions      [0 3 -1 0 0 0 0];

internalField   nonuniform List<scalar> 
1468
(
-2.73498e-07
2.74562e-07
-2.00749e-07
-6.35539e-08
-8.49874e-08
-1.17082e-07
7.62445e-08
-1.50207e-07
2.39008e-07
-1.65903e-07
4.16144e-07
-1.657e-07
5.66392e-07
-1.55422e-07
7.12455e-07
-1.35567e-07
8.16676e-07
-1.11115e-07
9.06657e-07
-8.12987e-08
9.48852e-07
-5.02313e-08
-1.64516e-08
9.71524e-07
3.67549e-07
-8.94225e-08
5.42976e-07
-2.31846e-07
7.29092e-07
-3.01084e-07
9.33922e-07
-3.47075e-07
1.13243e-06
-3.63311e-07
1.32738e-06
-3.53457e-07
1.49547e-06
-3.24136e-07
1.64566e-06
-2.80125e-07
1.75864e-06
-2.26397e-07
1.84674e-06
-1.65714e-07
1.89399e-06
-1.01114e-07
-3.40139e-08
1.91319e-06
4.11731e-07
-4.96624e-07
7.16953e-07
-5.29612e-07
1.01576e-06
-5.96376e-07
1.31105e-06
-6.34041e-07
1.58225e-06
-6.32533e-07
1.83204e-06
-5.95829e-07
2.04208e-06
-5.34397e-07
2.22156e-06
-4.54121e-07
2.35573e-06
-3.62848e-07
2.45675e-06
-2.6325e-07
2.51189e-06
-1.60067e-07
-5.39049e-08
2.53306e-06
5.47599e-07
-1.0353e-06
9.75586e-07
-9.49427e-07
1.39276e-06
-1.00685e-06
1.78518e-06
-1.01823e-06
2.13577e-06
-9.79506e-07
2.44182e-06
-8.95166e-07
2.695e-06
-7.87164e-07
2.90129e-06
-6.55547e-07
3.05568e-06
-5.19465e-07
3.16669e-06
-3.71299e-07
3.22927e-06
-2.26963e-07
-7.46894e-08
3.25149e-06
7.4e-07
-1.76139e-06
1.32098e-06
-1.51957e-06
1.87357e-06
-1.54569e-06
2.36699e-06
-1.50817e-06
2.80161e-06
-1.3957e-06
3.153e-06
-1.25151e-06
3.45e-06
-1.06608e-06
3.66775e-06
-8.84509e-07
3.84502e-06
-6.80193e-07
3.95199e-06
-4.93465e-07
4.02881e-06
-2.89209e-07
-1.04712e-07
4.04111e-06
9.9406e-07
-2.73213e-06
1.77071e-06
-2.27398e-06
2.4689e-06
-2.22971e-06
3.08293e-06
-2.08867e-06
3.56914e-06
-1.88502e-06
3.98261e-06
-1.629e-06
4.27805e-06
-1.3752e-06
4.53014e-06
-1.10386e-06
4.68518e-06
-8.56261e-07
4.81785e-06
-5.98325e-07
4.86817e-06
-3.65574e-07
-1.20155e-07
4.90482e-06
1.33279e-06
-4.04792e-06
2.35161e-06
-3.26511e-06
3.21856e-06
-3.07786e-06
3.92082e-06
-2.77025e-06
4.47446e-06
-2.40509e-06
4.88824e-06
-2.03249e-06
5.20657e-06
-1.66761e-06
5.4319e-06
-1.32811e-06
5.60028e-06
-1.00668e-06
5.70369e-06
-7.08859e-07
5.76947e-06
-4.21873e-07
-1.48423e-07
5.78465e-06
1.80598e-06
-5.82245e-06
3.11052e-06
-4.56062e-06
4.15078e-06
-4.08137e-06
4.92244e-06
-3.51921e-06
5.4861e-06
-2.94845e-06
5.8927e-06
-2.4201e-06
6.18513e-06
-1.94595e-06
6.392e-06
-1.52408e-06
6.5361e-06
-1.14429e-06
6.62839e-06
-7.98374e-07
6.68021e-06
-4.7573e-07
-1.67631e-07
6.69584e-06
2.47355e-06
-8.28958e-06
4.14162e-06
-6.20247e-06
5.30014e-06
-5.2412e-06
6.08548e-06
-4.28431e-06
6.61031e-06
-3.45527e-06
6.96664e-06
-2.7592e-06
7.21067e-06
-2.17647e-06
7.37865e-06
-1.68094e-06
7.4915e-06
-1.25016e-06
7.56234e-06
-8.66777e-07
7.60076e-06
-5.14949e-07
-1.82829e-07
7.61101e-06
3.51639e-06
-1.17897e-05
5.53382e-06
-8.22597e-06
6.72501e-06
-6.4044e-06
7.40978e-06
-4.96153e-06
7.82544e-06
-3.85834e-06
8.08848e-06
-3.00998e-06
8.2608e-06
-2.33835e-06
8.3756e-06
-1.78686e-06
8.44958e-06
-1.31987e-06
8.49457e-06
-9.10154e-07
8.51689e-06
-5.40035e-07
-1.93129e-07
8.52135e-06
5.27665e-06
-1.70703e-05
7.48146e-06
-1.04168e-05
8.42365e-06
-7.36121e-06
8.86394e-06
-5.39348e-06
9.09392e-06
-4.07767e-06
9.22797e-06
-3.13378e-06
9.31258e-06
-2.41142e-06
9.36574e-06
-1.83151e-06
9.39797e-06
-1.34548e-06
9.41415e-06
-9.24395e-07
9.41961e-06
-5.46821e-07
-1.96595e-07
9.41771e-06
8.72e-06
-2.57858e-05
1.01297e-05
-1.18381e-05
1.03573e-05
-7.57422e-06
1.03729e-05
-5.4084e-06
1.03611e-05
-4.06351e-06
1.03512e-05
-3.11757e-06
1.03433e-05
-2.39737e-06
1.03354e-05
-1.81813e-06
1.03256e-05
-1.33238e-06
1.03136e-05
-9.12281e-07
1.03014e-05
-5.38546e-07
1.02931e-05
-1.94622e-07
9.46364e-07
1.65708e-08
8.99676e-07
5.0263e-08
8.09656e-07
8.14808e-08
6.99993e-07
1.11023e-07
5.56815e-07
1.35607e-07
4.01392e-07
1.54891e-07
2.30398e-07
1.65142e-07
6.32548e-08
1.64302e-07
-9.0634e-08
1.49173e-07
-2.09698e-07
1.15165e-07
-2.7664e-07
6.23702e-08
-2.7829e-07
1.8914e-06
3.35855e-08
1.84059e-06
1.00728e-07
1.75128e-06
1.65432e-07
1.63431e-06
2.2606e-07
1.48489e-06
2.7978e-07
1.31352e-06
3.23371e-07
1.12176e-06
3.5223e-07
9.20847e-07
3.61006e-07
7.2136e-07
3.44388e-07
5.34364e-07
2.97818e-07
3.63161e-07
2.28407e-07
8.338e-08
2.5093e-06
5.24744e-08
2.4506e-06
1.58696e-07
2.34793e-06
2.62302e-07
2.20974e-06
3.61847e-07
2.0301e-06
4.53334e-07
1.81666e-06
5.32851e-07
1.56927e-06
5.94027e-07
1.29645e-06
6.2884e-07
1.0056e-06
6.29493e-07
7.06813e-07
5.90356e-07
4.06628e-07
5.24192e-07
4.88308e-07
3.22672e-06
7.12451e-08
3.16119e-06
2.23456e-07
3.04755e-06
3.68808e-07
2.88954e-06
5.16216e-07
2.68121e-06
6.53355e-07
2.42563e-06
7.82973e-07
2.11941e-06
8.90638e-07
1.76901e-06
9.72002e-07
1.37931e-06
1.01062e-06
9.65339e-07
9.98548e-07
5.41907e-07
9.43009e-07
1.02067e-06
4.02611e-06
9.71998e-08
3.94804e-06
2.83396e-07
3.83549e-06
4.85105e-07
3.6575e-06
6.75423e-07
3.43269e-06
8.7431e-07
3.13606e-06
1.0594e-06
2.78065e-06
1.2377e-06
2.35099e-06
1.3853e-06
1.85877e-06
1.49218e-06
1.31268e-06
1.53285e-06
7.26518e-07
1.49978e-06
1.73784e-06
4.8678e-06
1.07097e-07
4.81031e-06
3.50592e-07
4.68052e-06
5.85897e-07
4.51222e-06
8.37939e-07
4.26543e-06
1.08879e-06
3.95566e-06
1.35162e-06
3.55316e-06
1.60894e-06
3.05964e-06
1.85652e-06
2.4584e-06
2.06238e-06
1.75181e-06
2.19542e-06
9.85062e-07
2.24933e-06
2.68029e-06
5.7668e-06
1.25447e-07
5.69916e-06
3.97976e-07
5.58855e-06
6.82436e-07
5.41776e-06
9.77144e-07
5.18372e-06
1.29418e-06
4.8654e-06
1.63019e-06
4.44872e-06
1.99108e-06
3.90065e-06
2.35975e-06
3.1986e-06
2.71946e-06
2.34334e-06
3.02751e-06
1.30463e-06
3.19936e-06
3.97588e-06
6.67657e-06
1.34602e-07
6.62123e-06
4.41235e-07
6.52112e-06
7.58683e-07
6.37328e-06
1.10078e-06
6.15864e-06
1.47303e-06
5.86573e-06
1.89163e-06
5.45659e-06
2.35942e-06
4.8972e-06
2.88514e-06
4.13144e-06
3.45036e-06
3.08557e-06
4.00334e-06
1.7917e-06
4.49477e-06
5.71331e-06
7.5958e-06
1.42188e-07
7.55047e-06
4.71464e-07
7.47308e-06
8.17673e-07
7.35311e-06
1.19509e-06
7.18129e-06
1.61877e-06
6.934e-06
2.10901e-06
6.57877e-06
2.68617e-06
6.05584e-06
3.37637e-06
5.27271e-06
4.19842e-06
4.12721e-06
5.15235e-06
2.44039e-06
6.08875e-06
8.1602e-06
8.50966e-06
1.44963e-07
8.47825e-06
4.88061e-07
8.42648e-06
8.53601e-07
8.3445e-06
1.2555e-06
8.22736e-06
1.71781e-06
8.05158e-06
2.26243e-06
7.78959e-06
2.93058e-06
7.37519e-06
3.77293e-06
6.69549e-06
4.86884e-06
5.49799e-06
6.29731e-06
3.49644e-06
8.12155e-06
1.16286e-05
9.40972e-06
1.43688e-07
9.39469e-06
4.90676e-07
9.36947e-06
8.63385e-07
9.33156e-06
1.27858e-06
9.27451e-06
1.76002e-06
9.18893e-06
2.33553e-06
9.05426e-06
3.05414e-06
8.82471e-06
3.99223e-06
8.38275e-06
5.29882e-06
7.4464e-06
7.2587e-06
5.24158e-06
1.02882e-05
1.68742e-05
1.02895e-05
1.36944e-07
1.02912e-05
4.7885e-07
1.02936e-05
8.4835e-07
1.02987e-05
1.2656e-06
1.03028e-05
1.74756e-06
1.03102e-05
2.32579e-06
1.03182e-05
3.0431e-06
1.03276e-05
3.9866e-06
1.03094e-05
5.32688e-06
1.00781e-05
7.48509e-06
8.66755e-06
1.17254e-05
2.55516e-05
1.67476e-05
-9.29233e-06
1.33918e-05
-8.47865e-06
1.22827e-05
-6.48296e-06
1.18105e-05
-4.93644e-06
1.15665e-05
-3.81759e-06
1.14256e-05
-2.97098e-06
1.1336e-05
-2.30139e-06
1.12741e-05
-1.74877e-06
1.12263e-05
-1.27965e-06
1.11876e-05
-8.71468e-07
1.11582e-05
-5.10736e-07
-1.84229e-07
1.11429e-05
1.79911e-05
-4.01535e-06
1.51107e-05
-5.61014e-06
1.37428e-05
-5.10767e-06
1.30471e-05
-4.24853e-06
1.26627e-05
-3.43566e-06
1.24309e-05
-2.74019e-06
1.2281e-05
-2.14952e-06
1.21761e-05
-1.64196e-06
1.2097e-05
-1.19926e-06
1.20339e-05
-8.09705e-07
1.1987e-05
-4.67664e-07
-1.68352e-07
1.19634e-05
1.78221e-05
-2.04441e-06
1.59689e-05
-3.7569e-06
1.47846e-05
-3.94129e-06
1.4076e-05
-3.54448e-06
1.36412e-05
-3.00334e-06
1.33628e-05
-2.46169e-06
1.31755e-05
-1.95905e-06
1.30412e-05
-1.50389e-06
1.29378e-05
-1.09215e-06
1.2853e-05
-7.23547e-07
1.27864e-05
-4.01571e-07
-1.36767e-07
1.27524e-05
1.76479e-05
-1.19025e-06
1.64922e-05
-2.60957e-06
1.55804e-05
-3.02725e-06
1.49463e-05
-2.9186e-06
1.45189e-05
-2.5835e-06
1.42281e-05
-2.17487e-06
1.40232e-05
-1.75724e-06
1.38721e-05
-1.35382e-06
1.37516e-05
-9.733e-07
1.36477e-05
-6.21367e-07
1.35572e-05
-3.14913e-07
1.3503e-05
-9.01676e-08
1.11454e-05
1.26123e-07
1.1163e-05
4.51045e-07
1.11931e-05
8.09372e-07
1.12356e-05
1.21638e-06
1.12955e-05
1.68468e-06
1.13835e-05
2.23746e-06
1.15226e-05
2.90719e-06
1.17624e-05
3.75286e-06
1.22286e-05
4.87072e-06
1.33261e-05
6.41442e-06
1.66485e-05
8.41285e-06
9.23763e-06
1.19735e-05
1.08528e-07
1.20084e-05
4.07776e-07
1.20636e-05
7.50411e-07
1.21378e-05
1.14037e-06
1.22412e-05
1.58552e-06
1.23894e-05
2.095e-06
1.26189e-05
2.68865e-06
1.29984e-05
3.38656e-06
1.36865e-05
4.2032e-06
1.50464e-05
5.07286e-06
1.7902e-05
5.58358e-06
4.02179e-06
1.27731e-05
8.05692e-08
1.28282e-05
3.45117e-07
1.29052e-05
6.69001e-07
1.30047e-05
1.04061e-06
1.31372e-05
1.45631e-06
1.33233e-05
1.91572e-06
1.35992e-05
2.42253e-06
1.40296e-05
2.969e-06
1.47334e-05
3.51635e-06
1.59096e-05
3.91984e-06
1.77509e-05
3.75524e-06
2.0734e-06
1.3544e-05
3.36601e-08
1.36242e-05
2.6184e-07
1.37208e-05
5.7196e-07
1.38379e-05
9.28752e-07
1.39874e-05
1.31459e-06
1.41911e-05
1.72399e-06
1.44797e-05
2.14734e-06
1.49034e-05
2.56246e-06
1.55327e-05
2.90604e-06
1.64426e-05
3.02911e-06
1.75915e-05
2.62308e-06
1.22802e-06
2.19473e-06
-7.66333e-07
1.4615e-06
-1.87856e-06
7.76773e-07
-2.35722e-06
2.44657e-07
-2.39283e-06
-1.45714e-07
-2.19841e-06
-4.2791e-07
-1.89537e-06
-6.34945e-07
-1.55103e-06
-7.92586e-07
-1.19498e-06
-9.22497e-07
-8.41936e-07
-1.0428e-06
-5.0028e-07
-1.16457e-06
-1.92804e-07
1.0318e-08
-1.25836e-06
1.74341e-06
-5.30016e-07
1.25798e-06
-1.39917e-06
7.49594e-07
-1.84876e-06
3.12226e-07
-1.96544e-06
-3.08831e-08
-1.86306e-06
-2.92697e-07
-1.64093e-06
-4.91658e-07
-1.3572e-06
-6.47565e-07
-1.04359e-06
-7.79347e-07
-7.13765e-07
-9.10136e-07
-3.72581e-07
-1.06834e-06
-3.25449e-08
1.88788e-07
-1.26089e-06
1.41369e-06
-3.8498e-07
1.08084e-06
-1.06948e-06
6.95786e-07
-1.47645e-06
3.41481e-07
-1.61781e-06
4.57107e-08
-1.57316e-06
-1.90178e-07
-1.40978e-06
-3.75228e-07
-1.17495e-06
-5.22695e-07
-8.98027e-07
-6.4815e-07
-5.88792e-07
-7.7691e-07
-2.42766e-07
-9.72806e-07
1.60966e-07
6.11541e-07
-1.38371e-06
1.16983e-06
-2.89521e-07
9.31315e-07
-8.35629e-07
6.37806e-07
-1.18514e-06
3.49203e-07
-1.33797e-06
9.66863e-08
-1.32936e-06
-1.12079e-07
-1.20835e-06
-2.80282e-07
-1.01424e-06
-4.14715e-07
-7.69618e-07
-5.26128e-07
-4.83231e-07
-6.34149e-07
-1.39756e-07
-8.11485e-07
3.38567e-07
-1.75825e-06
1.54508e-06
-1.17619e-06
-5.79033e-08
-1.06443e-06
1.43872e-07
-9.50777e-07
4.56512e-07
-8.24073e-07
8.04876e-07
-6.67713e-07
1.16448e-06
-4.61905e-07
1.5271e-06
-1.81669e-07
1.87813e-06
2.05846e-07
2.18807e-06
7.35661e-07
2.39128e-06
1.41752e-06
2.36335e-06
2.14909e-06
1.90124e-06
8.06742e-07
-1.08025e-06
-2.3834e-07
-9.29464e-07
-8.59114e-09
-8.04632e-07
3.35315e-07
-6.76054e-07
6.83036e-07
-5.21401e-07
1.02042e-06
-3.23601e-07
1.34087e-06
-6.36381e-08
1.63173e-06
2.77366e-07
1.86127e-06
7.12046e-07
1.97208e-06
1.22093e-06
1.86842e-06
1.70517e-06
1.42675e-06
5.70825e-07
-9.81613e-07
-6.51171e-07
-7.94555e-07
-2.00305e-07
-6.7073e-07
2.11542e-07
-5.48071e-07
5.64638e-07
-4.02078e-07
8.81208e-07
-2.18069e-07
1.16556e-06
1.60945e-08
1.40712e-06
3.10152e-07
1.57798e-06
6.63383e-07
1.63049e-06
1.04719e-06
1.49536e-06
1.38068e-06
1.09967e-06
4.24623e-07
-8.20035e-07
-1.58387e-06
-6.48886e-07
-3.68101e-07
-5.46039e-07
1.14157e-07
-4.37284e-07
4.64429e-07
-3.0427e-07
7.58122e-07
-1.37308e-07
1.00934e-06
7.00009e-08
1.21039e-06
3.20962e-07
1.33802e-06
6.07988e-07
1.35424e-06
9.01886e-07
1.21092e-06
1.14044e-06
8.66446e-07
3.27335e-07
9.86361e-07
-2.23145e-07
8.10403e-07
-6.63919e-07
5.80525e-07
-9.6599e-07
3.45064e-07
-1.1095e-06
1.30534e-07
-1.12079e-06
-5.26739e-08
-1.03057e-06
-2.02759e-07
-8.68518e-07
-3.22301e-07
-6.53853e-07
-4.14744e-07
-3.93519e-07
-4.8092e-07
-7.49986e-08
-4.94347e-07
3.48811e-07
1.05555e-06
8.46127e-07
-1.74832e-07
7.11704e-07
-5.33418e-07
5.29863e-07
-7.88068e-07
3.35302e-07
-9.23563e-07
1.52822e-07
-9.45953e-07
-7.09587e-09
-8.78356e-07
-1.39819e-07
-7.43385e-07
-2.44497e-07
-5.5683e-07
-3.19156e-07
-3.26075e-07
-3.55103e-07
-4.59587e-08
-3.10007e-07
2.99031e-07
7.34368e-07
7.3758e-07
-1.38681e-07
6.32469e-07
-4.3302e-07
4.84771e-07
-6.49941e-07
3.23045e-07
-7.69105e-07
1.67225e-07
-7.95449e-07
2.77209e-08
-7.44491e-07
-8.9174e-08
-6.31145e-07
-1.80465e-07
-4.7083e-07
-2.40993e-07
-2.69659e-07
-2.59574e-07
-3.11118e-08
-2.04979e-07
2.39998e-07
5.30543e-07
6.52413e-07
-1.10644e-07
5.67975e-07
-3.52205e-07
4.46671e-07
-5.34355e-07
3.10424e-07
-6.40485e-07
1.76236e-07
-6.68679e-07
5.44557e-08
-6.2916e-07
-4.88645e-08
-5.35687e-07
-1.28549e-07
-3.98547e-07
-1.78907e-07
-2.27517e-07
-1.89291e-07
-2.83242e-08
-1.39621e-07
1.83918e-07
3.80795e-07
5.85178e-07
-8.88485e-08
5.15798e-07
-2.87909e-07
4.1402e-07
-4.41395e-07
2.98022e-07
-5.32557e-07
1.81733e-07
-5.57182e-07
7.4505e-08
-5.2766e-07
-1.69455e-08
-4.48775e-07
-8.74276e-08
-3.34122e-07
-1.30447e-07
-1.89475e-07
-1.37682e-07
-2.58863e-08
-9.80266e-08
1.39147e-07
2.81493e-07
5.31554e-07
-7.09324e-08
4.73198e-07
-2.33697e-07
3.86629e-07
-3.62076e-07
2.8701e-07
-4.41638e-07
1.84476e-07
-4.60444e-07
8.98103e-08
-4.39272e-07
7.72937e-09
-3.72909e-07
-5.5016e-08
-2.78848e-07
-9.31783e-08
-1.58799e-07
-9.99664e-08
-2.67389e-08
-6.9609e-08
1.02075e-07
2.02997e-07
4.88719e-07
-5.63684e-08
4.3837e-07
-1.8921e-07
3.63239e-07
-2.96626e-07
2.77701e-07
-3.5956e-07
1.85145e-07
-3.76237e-07
1.0135e-07
-3.58427e-07
2.63964e-08
-3.05177e-07
-2.99372e-08
-2.27955e-07
-6.49589e-08
-1.30639e-07
-7.22654e-08
-2.49382e-08
-5.04791e-08
7.40754e-08
1.4969e-07
4.54243e-07
-4.42854e-08
4.09662e-07
-1.49912e-07
3.44373e-07
-2.35334e-07
2.69212e-07
-2.95745e-07
1.84948e-07
-2.93791e-07
1.09454e-07
-2.90273e-07
4.04674e-08
-2.39512e-07
-1.09894e-08
-1.84229e-07
-4.37547e-08
-1.03989e-07
-5.21832e-08
-2.38253e-08
-3.68123e-08
5.24642e-08
1.06532e-07
4.26715e-07
-3.37754e-08
3.86591e-07
-1.15371e-07
3.27013e-07
-1.87047e-07
2.64418e-07
-2.15437e-07
1.82042e-07
-2.36424e-07
1.16422e-07
-2.15012e-07
4.956e-08
-1.90669e-07
3.53989e-09
-1.38362e-07
-2.8613e-08
-8.33305e-08
-3.75719e-08
-1.93503e-08
-2.7465e-08
3.56796e-08
7.59603e-08
4.04838e-07
-2.4366e-08
3.6715e-07
-8.57115e-08
3.16016e-07
-1.30203e-07
2.55858e-07
-1.55739e-07
1.82208e-07
-1.69503e-07
1.18327e-07
-1.57601e-07
5.74578e-08
-1.38187e-07
1.27705e-08
-1.02651e-07
-1.72607e-08
-6.22598e-08
-2.75619e-08
-1.72669e-08
-2.077e-08
2.1831e-08
4.99284e-08
3.87398e-07
-1.67448e-08
3.53119e-07
-5.65388e-08
3.05982e-07
-8.0546e-08
2.48842e-07
-9.6631e-08
1.80688e-07
-1.11967e-07
1.19212e-07
-1.03662e-07
6.20698e-08
-9.41319e-08
1.90007e-08
-7.16165e-08
-9.72862e-09
-4.67859e-08
-2.07804e-08
-1.79932e-08
-1.6239e-08
7.04691e-09
2.55211e-08
6.61598e-07
6.05437e-07
5.25535e-07
4.26956e-07
3.13792e-07
2.07816e-07
1.11609e-07
3.76464e-08
-1.12214e-08
-3.10441e-08
-2.55211e-08
-5.01038e-07
-1.08662e-06
-4.94215e-07
-3.754e-07
-4.32269e-07
5.43245e-08
-3.42284e-07
3.79685e-07
-2.24345e-07
6.46663e-07
-7.53734e-08
8.68016e-07
1.06314e-07
1.03619e-06
3.19609e-07
1.13278e-06
5.54084e-07
1.12811e-06
7.83021e-07
9.89252e-07
9.59602e-07
6.93866e-07
2.58142e-07
-3.16193e-07
-7.61587e-07
-3.66514e-07
-3.1925e-07
-3.34463e-07
2.98186e-08
-2.62267e-07
3.15927e-07
-1.59149e-07
5.52899e-07
-2.76755e-08
7.45098e-07
1.30823e-07
8.85688e-07
3.12157e-07
9.58914e-07
5.05211e-07
9.42236e-07
6.86689e-07
8.13779e-07
8.21273e-07
5.62186e-07
2.07047e-07
-2.09865e-07
-5.50671e-07
-2.69716e-07
-2.57353e-07
-2.54463e-07
1.88774e-08
-1.96293e-07
2.63055e-07
-1.06678e-07
4.69625e-07
8.98426e-09
6.35494e-07
1.471e-07
7.534e-07
3.01817e-07
8.09534e-07
4.62405e-07
7.87591e-07
6.08724e-07
6.71989e-07
7.14093e-07
4.59052e-07
1.67563e-07
-1.44177e-07
-3.98838e-07
-1.98004e-07
-1.96174e-07
-1.9076e-07
1.89003e-08
-1.4277e-07
2.23683e-07
-6.46924e-08
3.99196e-07
3.71807e-08
5.4079e-07
1.57747e-07
6.38019e-07
2.90668e-07
6.81657e-07
4.25598e-07
6.56806e-07
5.4565e-07
5.55675e-07
6.30069e-07
3.76057e-07
1.36586e-07
-1.01495e-07
-2.93192e-07
-1.45586e-07
-1.49147e-07
-1.40807e-07
2.05808e-08
-1.0036e-07
1.87593e-07
-3.14597e-08
3.37058e-07
5.8414e-08
4.54894e-07
1.64534e-07
5.36961e-07
2.79405e-07
5.694e-07
3.94485e-07
5.46222e-07
4.9448e-07
4.57809e-07
5.63741e-07
3.08043e-07
1.11042e-07
-7.28454e-08
-2.13319e-07
-1.0672e-07
-1.0828e-07
-1.02611e-07
2.36021e-08
-6.66742e-08
1.59316e-07
-5.82726e-09
2.82901e-07
7.47073e-08
3.79797e-07
1.6823e-07
4.4673e-07
2.69062e-07
4.71391e-07
3.68057e-07
4.49386e-07
4.53083e-07
3.74812e-07
5.1097e-07
2.50714e-07
9.07206e-08
-5.2961e-08
-1.5612e-07
-7.82748e-08
-7.87585e-08
-7.34781e-08
2.3924e-08
-4.06627e-08
1.32139e-07
1.36692e-08
2.32672e-07
8.66528e-08
3.11487e-07
1.69912e-07
3.65727e-07
2.59459e-07
3.8433e-07
3.46024e-07
3.65112e-07
4.195e-07
3.02755e-07
4.69087e-07
2.02126e-07
7.28334e-08
-3.89954e-08
-1.11123e-07
-5.73845e-08
-5.54097e-08
-5.16354e-08
2.58891e-08
-2.09013e-08
1.06256e-07
2.82858e-08
1.90662e-07
9.52264e-08
2.4694e-07
1.70157e-07
2.93996e-07
2.50841e-07
3.03781e-07
3.27598e-07
2.9011e-07
3.92436e-07
2.386e-07
4.35658e-07
1.59367e-07
5.74608e-08
-2.93595e-08
-7.99345e-08
-4.17798e-08
-3.64689e-08
-3.63068e-08
1.86736e-08
-5.43921e-09
8.70185e-08
3.77887e-08
1.42032e-07
1.01804e-07
1.94734e-07
1.68652e-07
2.22042e-07
2.4361e-07
2.35878e-07
3.12147e-07
2.20217e-07
3.70799e-07
1.83031e-07
4.09149e-07
1.21036e-07
4.44271e-08
-2.21161e-08
-5.28846e-08
-3.1671e-08
-2.39925e-08
-2.40712e-08
1.64612e-08
3.95873e-09
6.3202e-08
4.59762e-08
1.04204e-07
1.04488e-07
1.40405e-07
1.67792e-07
1.60716e-07
2.36344e-07
1.69157e-07
2.99945e-07
1.58478e-07
3.53293e-07
1.31032e-07
3.88447e-07
8.69772e-08
3.07826e-08
-1.74584e-08
-2.89505e-08
-2.45951e-08
-1.0846e-08
-1.61311e-08
1.41888e-08
1.04524e-08
4.40956e-08
5.09109e-08
6.84986e-08
1.05777e-07
9.19625e-08
1.65988e-07
1.02503e-07
2.30189e-07
1.08074e-07
2.89908e-07
1.00837e-07
3.39592e-07
8.35029e-08
3.72141e-07
5.50207e-08
1.77424e-08
-2.783e-08
-3.76358e-08
-2.2067e-08
2.27943e-08
9.25134e-08
1.84799e-07
2.87865e-07
3.96301e-07
4.97521e-07
5.81198e-07
6.35726e-07
)
;

boundaryField
{
    rotor
    {
        type            calculated;
        value           uniform 0;
    }
    stator
    {
        type            calculated;
        value           uniform 0;
    }
    front
    {
        type            empty;
        value           nonuniform 0();
    }
    back
    {
        type            empty;
        value           nonuniform 0();
    }
    procBoundary3to1
    {
        type            processor;
        value           nonuniform List<scalar> 
20
(
3.29657e-05
2.31162e-05
1.97006e-05
1.84367e-05
2.56961e-06
1.94041e-06
1.52568e-06
1.23671e-06
1.02716e-06
8.70912e-07
7.51832e-07
6.59722e-07
5.87495e-07
5.30695e-07
4.85536e-07
4.49823e-07
4.21737e-07
3.99276e-07
3.82086e-07
6.52486e-07
)
;
    }
    procBoundary3to2
    {
        type            processor;
        value           nonuniform List<scalar> 
20
(
-3.32447e-05
-2.32657e-05
-1.97936e-05
-1.85019e-05
-2.61892e-06
-1.98034e-06
-1.5591e-06
-1.26626e-06
-1.05378e-06
-8.95739e-07
-7.75027e-07
-6.81899e-07
-6.08668e-07
-5.50906e-07
-5.04813e-07
-4.68099e-07
-4.38925e-07
-4.1579e-07
-3.97819e-07
-6.79382e-07
)
;
    }
}


// ************************************************************************* //
