/*--------------------------------*- C++ -*----------------------------------*\
  =========                 |
  \\      /  F ield         | OpenFOAM: The Open Source CFD Toolbox
   \\    /   O peration     | Website:  https://openfoam.org
    \\  /    A nd           | Version:  6
     \\/     M anipulation  |
\*---------------------------------------------------------------------------*/
FoamFile
{
    version     2.0;
    format      ascii;
    class       volScalarField;
    location    "2000";
    object      epsilon;
}
// * * * * * * * * * * * * * * * * * * * * * * * * * * * * * * * * * * * * * //

dimensions      [0 2 -3 0 0 0 0];

internalField   nonuniform List<scalar> 
768
(
277.959
147.881
156.55
165.85
160.13
166.917
165.678
167.702
159.076
160.899
169.017
172.29
160.181
83.0483
71.0796
64.6818
60.9643
59.532
58.6577
58.1965
57.5246
57.665
58.1153
58.3322
144.032
71.9663
49.0366
37.1399
31.7736
29.6068
28.7697
28.4555
28.3083
28.297
28.342
28.3769
134.308
67.382
42.1559
29.6567
24.3968
22.3752
21.6515
21.4056
21.3227
21.3076
21.3143
21.3245
125.239
64.4442
39.2838
27.1609
22.2811
20.478
19.8679
19.6691
19.6139
19.5947
19.5954
19.5933
123.343
62.4106
37.5726
25.9876
21.4772
19.8899
19.3596
19.2059
19.1547
19.1488
19.1381
19.1434
115.523
60.5291
36.3086
25.2024
21.0474
19.624
19.1748
19.0358
18.998
18.9865
18.9853
18.9795
115.713
59.0736
35.3669
24.6332
20.745
19.4605
19.0644
18.9463
18.9133
18.9069
18.9003
18.8941
109.573
58.8466
34.8567
24.2522
20.5292
19.3391
18.981
18.8766
18.8456
18.8404
18.8355
18.8335
104.774
59.5056
34.8506
24.0251
20.3675
19.238
18.9062
18.8103
18.7831
18.7798
18.7771
18.7769
104.78
63.3492
34.989
23.7722
20.1967
19.1377
18.836
18.7522
18.7289
18.7274
18.7195
18.7147
152.976
68.7457
33.609
23.0141
19.9016
19.0096
18.7582
18.691
18.6788
18.681
18.6766
18.6636
164.882
164.097
159.118
162.917
168.087
174.483
168.069
163.456
155.186
141.001
117.766
146.077
57.9065
57.7891
57.7391
58.0059
58.2987
58.6569
58.6413
59.751
63.8856
72.4614
91.5571
159.869
28.3607
28.3633
28.3749
28.4082
28.4487
28.5527
28.9377
30.6009
35.9298
48.5337
75.7472
153.672
21.3277
21.3332
21.3387
21.3475
21.3607
21.4193
21.7294
23.1102
27.7503
39.6069
65.8166
142.1
19.5977
19.5964
19.6012
19.6024
19.6122
19.6496
19.8891
20.9985
24.9985
35.9874
61.8276
134.052
19.1358
19.1408
19.136
19.1416
19.141
19.173
19.3514
20.2527
23.702
33.7792
58.6847
123.096
18.9781
18.978
18.9827
18.9829
18.9834
19.0034
19.1466
19.8742
22.8471
32.0499
55.2851
119.86
18.8925
18.8966
18.9002
18.901
18.9021
18.9196
19.0306
19.6284
22.2024
30.619
53.0544
116.345
18.8288
18.8279
18.8315
18.8302
18.835
18.8542
18.9487
19.4389
21.6627
29.3907
50.7165
119.94
18.775
18.7729
18.7719
18.7697
18.7745
18.7949
18.8795
19.2871
21.1962
28.2271
49.3268
119.612
18.7202
18.7181
18.7119
18.7113
18.7225
18.7435
18.8167
19.151
20.7542
27.0782
47.6904
123.941
18.6635
18.6586
18.6557
18.662
18.6715
18.6914
18.752
19.0116
20.2677
25.6425
47.0665
142.841
67.2914
42.0782
27.3675
21.4197
19.4498
18.8524
18.677
18.6405
18.6367
18.6326
18.6279
18.6163
37.106
28.6653
22.812
20.0513
19.0358
18.702
18.5994
18.5769
18.5719
18.5703
18.5788
18.5694
25.2623
22.6178
20.3684
19.2162
18.7507
18.585
18.5385
18.5345
18.536
18.5288
18.5392
18.5465
20.8668
20.0509
19.2296
18.7747
18.5761
18.4989
18.4792
18.4757
18.4772
18.4843
18.5301
18.6433
18.6141
18.6115
18.613
18.6184
18.62
18.6348
18.6819
18.8548
19.6411
23.0567
36.2853
76.8201
18.5612
18.5692
18.5746
18.5741
18.5762
18.5865
18.6183
18.7186
19.1232
20.7774
26.5466
41.0413
18.5415
18.5295
18.5181
18.5212
18.5293
18.5401
18.5594
18.6128
18.7997
19.4919
21.6637
26.162
18.6552
18.5452
18.4886
18.482
18.4857
18.4915
18.5018
18.5299
18.6136
18.8829
19.6493
21.0561
19.2995
19.0018
18.7105
18.5469
18.4709
18.4389
18.43
18.4286
18.433
18.4743
18.705
19.2519
18.7233
18.604
18.4979
18.4348
18.4052
18.3911
18.3868
18.3874
18.4091
18.5811
19.4586
21.3961
18.5002
18.4403
18.3949
18.3716
18.3595
18.3528
18.351
18.356
18.4219
18.9363
21.4515
26.8252
18.402
18.3612
18.3397
18.3285
18.323
18.3196
18.3193
18.3322
18.4775
19.5891
25.0189
40.3309
19.298
18.7734
18.5136
18.4453
18.435
18.4384
18.4457
18.4621
18.5014
18.6112
18.8876
19.329
21.4893
19.5689
18.6736
18.4431
18.3995
18.3958
18.3996
18.4087
18.4275
18.4705
18.5669
18.7081
26.8978
21.4425
19.0587
18.4813
18.3749
18.3607
18.3612
18.3659
18.3752
18.3923
18.4261
18.4743
40.6995
24.8511
19.6713
18.552
18.3579
18.3305
18.3284
18.3308
18.3353
18.342
18.3539
18.3743
18.3487
18.3146
18.3003
18.2959
18.2932
18.291
18.2919
18.3129
18.5407
20.2519
30.0149
89.5927
18.3127
18.2813
18.2716
18.268
18.2667
18.2652
18.2664
18.2908
18.5495
20.4437
30.4776
67.0946
18.2843
18.2544
18.246
18.2444
18.2436
18.2427
18.2436
18.2672
18.5187
20.3738
30.0718
63.0671
18.2611
18.2328
18.2269
18.2248
18.2242
18.2234
18.2241
18.2447
18.4721
20.2025
29.4635
61.5555
18.2506
18.2247
18.2194
18.2185
18.2177
18.2173
18.2178
18.2352
18.4354
20.021
28.8341
60.5053
18.3157
18.2995
18.2971
18.296
18.2959
18.2954
18.296
18.31
18.4849
19.933
28.3113
59.6749
18.7144
18.7209
18.7237
18.7242
18.7255
18.7247
18.7252
18.7357
18.8894
20.2155
28.1095
58.9353
20.1462
20.1891
20.2014
20.203
20.2073
20.2056
20.2057
20.2113
20.3463
21.5454
28.732
57.8611
23.8383
23.8844
23.8997
23.9015
23.9062
23.9018
23.9021
23.8978
24.0083
25.0062
30.8736
55.2358
30.2307
30.1091
30.0963
30.0939
30.0774
30.0667
30.0631
30.0457
30.1124
30.7025
34.0231
48.934
40.4339
40.2399
40.1794
40.1465
40.0591
40.0045
40.0014
39.9404
39.9588
40.0069
39.8494
37.0772
69.0765
68.5524
68.2739
68.0601
67.6998
67.536
67.4261
67.2222
67.0778
66.7566
63.0851
44.8119
89.5695
29.4966
20.3007
18.6175
18.3415
18.303
18.299
18.3004
18.3028
18.3052
18.3095
18.3206
67.3519
30.0988
20.5009
18.6285
18.3203
18.2775
18.2727
18.2734
18.2747
18.2751
18.2763
18.2852
63.2319
29.8138
20.4475
18.5969
18.2947
18.2532
18.2486
18.249
18.2497
18.2494
18.2499
18.257
61.6432
29.2956
20.2909
18.5469
18.2691
18.2318
18.2277
18.228
18.2284
18.228
18.2279
18.2349
60.5948
28.7367
20.1171
18.504
18.2561
18.224
18.2208
18.2211
18.2214
18.2209
18.2213
18.2267
59.6771
28.2477
20.0285
18.5461
18.3266
18.2993
18.2963
18.2965
18.2962
18.2958
18.2963
18.3018
58.8373
28.0497
20.2958
18.9383
18.7425
18.7188
18.7153
18.7154
18.7148
18.7152
18.7165
18.7184
57.7419
28.6504
21.5922
20.3725
20.1978
20.1764
20.1703
20.1701
20.1693
20.1715
20.1737
20.1739
55.4103
30.808
25.0069
24.0024
23.8509
23.8368
23.8236
23.8261
23.8258
23.8337
23.8377
23.8387
49.4869
34.1137
30.6841
30.0848
29.9904
29.9871
29.9807
29.9955
30.0112
30.0205
30.0327
30.0556
37.644
39.8512
39.9655
39.955
39.9454
39.9929
40.0137
40.0832
40.1473
40.2057
40.219
40.2799
44.8527
63.0179
66.5416
66.9672
67.1729
67.3362
67.7084
67.8848
68.2248
68.7837
68.8739
68.6061
)
;

boundaryField
{
    rotor
    {
        Cmu             0.09;
        kappa           0.41;
        E               9.8;
        type            epsilonWallFunction;
        value           nonuniform List<scalar> 
48
(
277.959
147.881
156.55
165.85
160.13
166.917
165.678
167.702
159.076
160.899
169.017
172.29
164.882
164.097
159.118
162.917
168.087
174.483
168.069
163.456
155.186
141.001
117.766
146.077
277.959
160.181
144.032
134.308
125.239
123.343
115.523
115.713
109.573
104.774
104.78
152.976
146.077
159.869
153.672
142.1
134.052
123.096
119.86
116.345
119.94
119.612
123.941
142.841
)
;
    }
    stator
    {
        Cmu             0.09;
        kappa           0.41;
        E               9.8;
        type            epsilonWallFunction;
        value           nonuniform List<scalar> 
48
(
69.0765
68.5524
68.2739
68.0601
67.6998
67.536
67.4261
67.2222
67.0778
66.7566
63.0851
44.8119
44.8527
63.0179
66.5416
66.9672
67.1729
67.3362
67.7084
67.8848
68.2248
68.7837
68.8739
68.6061
89.5695
67.3519
63.2319
61.6432
60.5948
59.6771
58.8373
57.7419
55.4103
49.4869
37.644
44.8527
89.5927
67.0946
63.0671
61.5555
60.5053
59.6749
58.9353
57.8611
55.2358
48.934
37.0772
44.8119
)
;
    }
    front
    {
        type            empty;
    }
    back
    {
        type            empty;
    }
    procBoundary0to1
    {
        type            processor;
        value           nonuniform List<scalar> 
20
(
77.3268
41.4234
26.308
21.106
19.3448
18.711
18.4729
18.3715
18.3177
18.2824
18.2543
18.2322
18.2239
18.2989
18.7161
20.1725
23.8364
30.0345
40.1894
68.3448
)
;
    }
    procBoundary0to2
    {
        type            processor;
        value           nonuniform List<scalar> 
20
(
66.6988
36.7696
25.1194
20.8134
19.2804
18.7177
18.4999
18.4034
18.3511
18.3151
18.2871
18.2636
18.2536
18.3181
18.7165
20.1474
23.8416
30.2549
40.5298
69.3714
)
;
    }
}


// ************************************************************************* //
