/*--------------------------------*- C++ -*----------------------------------*\
  =========                 |
  \\      /  F ield         | OpenFOAM: The Open Source CFD Toolbox
   \\    /   O peration     | Website:  https://openfoam.org
    \\  /    A nd           | Version:  6
     \\/     M anipulation  |
\*---------------------------------------------------------------------------*/
FoamFile
{
    version     2.0;
    format      ascii;
    class       volScalarField;
    location    "2000";
    object      k;
}
// * * * * * * * * * * * * * * * * * * * * * * * * * * * * * * * * * * * * * //

dimensions      [0 2 -2 0 0 0 0];

internalField   nonuniform List<scalar> 
768
(
0.48097
0.499547
0.537729
0.565218
0.560649
0.575648
0.573366
0.574963
0.554064
0.55451
0.573168
0.581887
0.384142
0.711202
0.855681
0.911448
0.930495
0.940172
0.943868
0.946217
0.944845
0.944964
0.945714
0.94689
0.389591
0.77395
0.911122
0.954965
0.969828
0.975399
0.977351
0.978116
0.978123
0.97819
0.978194
0.978245
0.399686
0.794923
0.92557
0.962992
0.97513
0.979401
0.980848
0.981369
0.981505
0.981571
0.981541
0.981528
0.401917
0.804382
0.932206
0.965769
0.97637
0.979747
0.98098
0.981236
0.981454
0.981387
0.981469
0.981361
0.412238
0.81756
0.938376
0.968084
0.976597
0.979526
0.980157
0.980553
0.980389
0.980515
0.980302
0.98041
0.41681
0.828844
0.945169
0.970166
0.977031
0.978888
0.979459
0.979402
0.979305
0.979121
0.97905
0.978915
0.433333
0.842786
0.953453
0.972834
0.977304
0.978317
0.978473
0.978326
0.978039
0.977839
0.977631
0.9774
0.438962
0.855289
0.962526
0.976066
0.9778
0.977802
0.97748
0.977086
0.976758
0.976583
0.976332
0.976089
0.448095
0.861861
0.972476
0.979644
0.978449
0.977245
0.976421
0.975877
0.975527
0.97526
0.975055
0.975056
0.455947
0.864864
0.979962
0.982653
0.978857
0.976546
0.975281
0.974545
0.974119
0.973851
0.97378
0.973874
0.597817
0.921638
0.989269
0.984134
0.978326
0.975485
0.974051
0.97324
0.972879
0.972711
0.972663
0.97262
0.563407
0.562338
0.552472
0.555702
0.571118
0.579216
0.560426
0.54815
0.520142
0.473806
0.391429
0.271015
0.945893
0.945632
0.944769
0.94556
0.946638
0.947738
0.945279
0.936886
0.909427
0.835692
0.646484
0.356478
0.97805
0.977986
0.977885
0.978025
0.97816
0.97828
0.977641
0.974549
0.962213
0.917978
0.767702
0.395003
0.981449
0.981458
0.981438
0.981477
0.981517
0.981559
0.981265
0.979495
0.971408
0.938464
0.808172
0.405763
0.981415
0.981305
0.981354
0.981297
0.981424
0.981432
0.981407
0.980134
0.973957
0.945833
0.821173
0.413227
0.980207
0.980313
0.980155
0.980273
0.980202
0.980406
0.980367
0.979696
0.974833
0.950566
0.833086
0.414955
0.978892
0.978806
0.978835
0.978787
0.97882
0.978944
0.979266
0.978951
0.975617
0.955878
0.842211
0.420841
0.977325
0.97736
0.977358
0.977313
0.977359
0.977655
0.97808
0.978413
0.976777
0.961931
0.86449
0.4314
0.976092
0.976061
0.976033
0.976021
0.976134
0.976488
0.977123
0.977912
0.978012
0.969002
0.879502
0.463481
0.975041
0.974912
0.974914
0.97498
0.975095
0.975455
0.976239
0.977531
0.979378
0.975722
0.907692
0.493259
0.973767
0.973718
0.973841
0.973966
0.974105
0.974421
0.975249
0.976944
0.980393
0.983926
0.939033
0.5402
0.972559
0.972599
0.972815
0.972854
0.972946
0.973326
0.97414
0.976101
0.980897
0.992296
1.0013
0.642754
0.942427
1.00262
0.996438
0.983314
0.976826
0.974037
0.972743
0.972078
0.971862
0.971856
0.971758
0.971598
1.01407
1.00598
0.99061
0.979529
0.974565
0.972343
0.97137
0.971023
0.970879
0.970841
0.970693
0.970528
1.00345
0.992772
0.981833
0.975396
0.972253
0.970694
0.970084
0.969996
0.97002
0.969928
0.969751
0.969757
0.986864
0.981213
0.975474
0.972019
0.970209
0.969231
0.968898
0.968957
0.968988
0.968918
0.968552
0.968006
0.971514
0.971566
0.971793
0.971954
0.972034
0.972253
0.972943
0.974698
0.979308
0.992135
1.02461
0.924325
0.970523
0.9707
0.970766
0.970808
0.971074
0.971335
0.971812
0.973048
0.976294
0.985014
1.00856
1.02486
0.969705
0.969773
0.969786
0.969784
0.969946
0.970215
0.970709
0.971512
0.973418
0.978252
0.990041
1.00405
0.967967
0.968464
0.968911
0.968949
0.968925
0.969145
0.969539
0.970103
0.971127
0.973516
0.978847
0.985898
0.976842
0.973918
0.971128
0.969517
0.968586
0.968067
0.967877
0.96785
0.967805
0.967592
0.966577
0.964259
0.971594
0.96997
0.968664
0.96781
0.967339
0.967068
0.966972
0.966939
0.966842
0.966121
0.962453
0.953388
0.96881
0.967757
0.967017
0.966638
0.966395
0.966254
0.96621
0.966181
0.965918
0.963799
0.952541
0.921879
0.96721
0.966385
0.96598
0.965742
0.96561
0.965535
0.965516
0.965475
0.964886
0.960099
0.932231
0.831574
0.963966
0.966215
0.967462
0.967832
0.96797
0.968138
0.968375
0.968722
0.969339
0.970578
0.97292
0.976002
0.952643
0.961387
0.965608
0.966799
0.967107
0.967235
0.967381
0.967601
0.967957
0.968568
0.969579
0.970903
0.920216
0.95063
0.962676
0.965666
0.966288
0.966436
0.966533
0.966677
0.966872
0.967173
0.967612
0.968202
0.82918
0.929802
0.958377
0.964416
0.965533
0.965739
0.965813
0.965901
0.966002
0.966142
0.966322
0.966648
0.966172
0.965451
0.965147
0.965045
0.964972
0.964927
0.964917
0.964846
0.963876
0.955842
0.900956
0.579057
0.96541
0.964743
0.964539
0.964446
0.964401
0.964369
0.964365
0.964274
0.963084
0.953101
0.88186
0.45421
0.964798
0.964162
0.963975
0.963939
0.963909
0.96389
0.963883
0.963791
0.962562
0.952131
0.87707
0.437862
0.964275
0.963658
0.963519
0.963466
0.963449
0.963436
0.963427
0.963342
0.962184
0.952117
0.878573
0.439279
0.963758
0.963149
0.963011
0.962995
0.962977
0.96297
0.962956
0.962882
0.961835
0.952448
0.881969
0.444037
0.962919
0.962272
0.962157
0.962112
0.962105
0.962095
0.962089
0.96202
0.961089
0.952395
0.885212
0.449159
0.960384
0.959577
0.959414
0.959365
0.959364
0.959352
0.95936
0.959298
0.958458
0.950259
0.885675
0.453784
0.951767
0.950548
0.950285
0.950157
0.950161
0.950138
0.950175
0.950119
0.949326
0.941199
0.87748
0.451702
0.925466
0.923421
0.922928
0.92268
0.922598
0.922563
0.922652
0.922608
0.921845
0.913213
0.847651
0.435082
0.855204
0.852155
0.851269
0.850716
0.850428
0.850311
0.850445
0.850522
0.849801
0.840605
0.772081
0.392081
0.680891
0.676923
0.675444
0.674484
0.673774
0.673542
0.673661
0.673954
0.673512
0.665351
0.601947
0.308791
0.2843
0.282491
0.281499
0.280627
0.279563
0.279087
0.278701
0.278373
0.277899
0.275183
0.251899
0.158581
0.579348
0.899656
0.953647
0.963201
0.964837
0.965102
0.965168
0.965227
0.965278
0.965341
0.965422
0.965619
0.456956
0.880266
0.950528
0.962296
0.96424
0.964539
0.964594
0.964632
0.964653
0.964684
0.964709
0.964877
0.438333
0.874563
0.949343
0.961721
0.963723
0.964026
0.964074
0.964101
0.964118
0.964125
0.964135
0.964268
0.439084
0.875208
0.949312
0.961373
0.963275
0.963555
0.963594
0.963612
0.963621
0.963622
0.963619
0.963758
0.442989
0.878047
0.9497
0.96107
0.962809
0.963059
0.963096
0.963102
0.963117
0.963106
0.963107
0.963224
0.448152
0.881005
0.949788
0.960401
0.961969
0.96219
0.962219
0.962221
0.962228
0.962224
0.962212
0.962342
0.451882
0.881505
0.947808
0.957853
0.959288
0.959505
0.95952
0.959533
0.959537
0.959528
0.95952
0.959632
0.451383
0.873806
0.938966
0.948855
0.950239
0.950479
0.950486
0.950524
0.95051
0.950522
0.950494
0.950623
0.437008
0.84508
0.911282
0.921688
0.923036
0.923425
0.923386
0.923515
0.923471
0.923537
0.923484
0.923598
0.396569
0.771055
0.839396
0.850326
0.851817
0.852277
0.852356
0.852526
0.852518
0.852677
0.852736
0.852702
0.313726
0.603268
0.665394
0.675202
0.676616
0.677214
0.677568
0.677755
0.677813
0.67818
0.678536
0.678118
0.157918
0.251394
0.27437
0.277653
0.278683
0.279236
0.280357
0.280972
0.281814
0.283018
0.283906
0.283423
)
;

boundaryField
{
    rotor
    {
        type            kqRWallFunction;
        value           nonuniform List<scalar> 
48
(
0.48097
0.499547
0.537729
0.565218
0.560649
0.575648
0.573366
0.574963
0.554064
0.55451
0.573168
0.581887
0.563407
0.562338
0.552472
0.555702
0.571118
0.579216
0.560426
0.54815
0.520142
0.473806
0.391429
0.271015
0.48097
0.384142
0.389591
0.399686
0.401917
0.412238
0.41681
0.433333
0.438962
0.448095
0.455947
0.597817
0.271015
0.356478
0.395003
0.405763
0.413227
0.414955
0.420841
0.4314
0.463481
0.493259
0.5402
0.642754
)
;
    }
    stator
    {
        type            kqRWallFunction;
        value           nonuniform List<scalar> 
48
(
0.2843
0.282491
0.281499
0.280627
0.279563
0.279087
0.278701
0.278373
0.277899
0.275183
0.251899
0.158581
0.157918
0.251394
0.27437
0.277653
0.278683
0.279236
0.280357
0.280972
0.281814
0.283018
0.283906
0.283423
0.579348
0.456956
0.438333
0.439084
0.442989
0.448152
0.451882
0.451383
0.437008
0.396569
0.313726
0.157918
0.579057
0.45421
0.437862
0.439279
0.444037
0.449159
0.453784
0.451702
0.435082
0.392081
0.308791
0.158581
)
;
    }
    front
    {
        type            empty;
    }
    back
    {
        type            empty;
    }
    procBoundary0to1
    {
        type            processor;
        value           nonuniform List<scalar> 
20
(
0.925785
1.02737
1.00526
0.986383
0.97616
0.970896
0.968131
0.966552
0.965521
0.964781
0.964174
0.963668
0.963138
0.962255
0.959548
0.950519
0.923425
0.852282
0.677212
0.28207
)
;
    }
    procBoundary0to2
    {
        type            processor;
        value           nonuniform List<scalar> 
20
(
0.938563
1.01121
1.00191
0.986145
0.976546
0.971494
0.968804
0.967239
0.966231
0.965475
0.96488
0.964352
0.963845
0.962994
0.960472
0.951874
0.925665
0.855638
0.68185
0.285454
)
;
    }
}


// ************************************************************************* //
