/*--------------------------------*- C++ -*----------------------------------*\
  =========                 |
  \\      /  F ield         | OpenFOAM: The Open Source CFD Toolbox
   \\    /   O peration     | Website:  https://openfoam.org
    \\  /    A nd           | Version:  6
     \\/     M anipulation  |
\*---------------------------------------------------------------------------*/
FoamFile
{
    version     2.0;
    format      ascii;
    class       volScalarField;
    location    "2000";
    object      p;
}
// * * * * * * * * * * * * * * * * * * * * * * * * * * * * * * * * * * * * * //

dimensions      [0 2 -2 0 0 0 0];

internalField   nonuniform List<scalar> 
768
(
0.118997
-0.136622
-0.250802
-0.310782
-0.316376
-0.312421
-0.282416
-0.253926
-0.204814
-0.162407
-0.110645
-0.0723095
0.0859894
0.0683738
-0.116085
-0.265139
-0.303518
-0.290271
-0.248051
-0.201716
-0.144994
-0.0911277
-0.0326522
0.0181249
0.018055
0.0791245
-0.106514
-0.300423
-0.359553
-0.337573
-0.280051
-0.214052
-0.14152
-0.0704694
0.00211529
0.06959
-0.0827933
-0.00111609
-0.175645
-0.359547
-0.403545
-0.362928
-0.288043
-0.205365
-0.118741
-0.0346539
0.04915
0.128144
-0.204297
-0.0986701
-0.269495
-0.423975
-0.438957
-0.369108
-0.280195
-0.179872
-0.0865226
0.01004
0.0973859
0.186913
-0.342298
-0.224872
-0.373822
-0.492177
-0.461204
-0.374274
-0.259967
-0.156447
-0.0465691
0.0482496
0.148509
0.234353
-0.497062
-0.350655
-0.472221
-0.538866
-0.4754
-0.357911
-0.236854
-0.118197
-0.00968151
0.095052
0.191008
0.284725
-0.681743
-0.494432
-0.562421
-0.565789
-0.460463
-0.324823
-0.193297
-0.0721785
0.0386939
0.141896
0.237972
0.328994
-0.893608
-0.639332
-0.628851
-0.563719
-0.420152
-0.270058
-0.134982
-0.0152914
0.0927318
0.192003
0.284234
0.371268
-1.12311
-0.773572
-0.664928
-0.521531
-0.348307
-0.193338
-0.0625373
0.0502417
0.151239
0.243518
0.329655
0.410747
-1.31376
-0.838695
-0.610038
-0.418528
-0.240144
-0.0961386
0.0208237
0.121338
0.211482
0.294893
0.37305
0.447085
-1.38037
-0.725984
-0.41504
-0.236234
-0.0952477
0.0172622
0.111516
0.19506
0.27221
0.345186
0.414511
0.480647
-0.0268274
0.00607903
0.0419122
0.0590522
0.0721384
0.0670087
0.0573697
0.0312317
-0.00769124
-0.147721
-0.30842
-0.326873
0.0692245
0.111247
0.15107
0.17846
0.199533
0.207515
0.208021
0.188791
0.121599
-0.0466652
-0.216566
-0.257119
0.13522
0.193987
0.249177
0.295385
0.335765
0.365639
0.385185
0.378366
0.304055
0.111083
-0.0515573
-0.0614289
0.205093
0.276283
0.344141
0.405297
0.461314
0.509203
0.547302
0.560923
0.510297
0.335337
0.186121
0.222292
0.267047
0.349029
0.422201
0.495774
0.560453
0.624657
0.676349
0.718089
0.704331
0.575342
0.450103
0.514053
0.326251
0.405773
0.491181
0.565171
0.644231
0.712095
0.784683
0.842535
0.86925
0.784067
0.668292
0.787918
0.372057
0.459196
0.541777
0.624517
0.703308
0.78341
0.860826
0.939363
0.989564
0.934984
0.847367
1.00938
0.416103
0.500741
0.583813
0.664968
0.746358
0.827621
0.912837
0.998101
1.06753
1.05406
0.961256
1.16765
0.454478
0.535498
0.614368
0.692712
0.771062
0.852477
0.938434
1.03062
1.11529
1.12392
1.07423
1.2742
0.488381
0.563422
0.63631
0.708876
0.782019
0.859785
0.943766
1.03739
1.13299
1.18584
1.14624
1.3586
0.517864
0.58562
0.651295
0.716099
0.782535
0.853235
0.931968
1.02263
1.12388
1.19777
1.21838
1.37376
0.543822
0.603435
0.660843
0.717137
0.775341
0.837205
0.906893
0.98676
1.08047
1.17795
1.22607
1.38211
-0.481812
-0.334708
-0.105126
-0.0137186
0.0615846
0.133212
0.201357
0.266746
0.330584
0.392884
0.453265
0.511173
0.296712
0.0855687
0.134206
0.165626
0.197587
0.238403
0.284506
0.333939
0.385483
0.437905
0.489665
0.539551
0.571643
0.33586
0.303902
0.297669
0.305777
0.326824
0.357098
0.393959
0.43533
0.47941
0.523639
0.565461
0.682839
0.484557
0.420164
0.397451
0.392334
0.401039
0.420455
0.447739
0.481114
0.51852
0.556345
0.590573
0.566714
0.618008
0.66656
0.714535
0.763861
0.816651
0.874683
0.93969
1.01092
1.08027
1.10669
1.04214
0.587603
0.630008
0.669735
0.709552
0.750589
0.794788
0.842675
0.89523
0.950984
1.00911
1.05937
1.16212
0.607254
0.640106
0.671407
0.703578
0.737565
0.774221
0.814311
0.858049
0.905234
0.955962
1.0127
1.0529
0.626856
0.648851
0.671961
0.697403
0.725209
0.75551
0.789189
0.826181
0.866896
0.911349
0.954073
0.946114
0.734553
0.576366
0.507295
0.475341
0.463436
0.46512
0.477242
0.497553
0.524782
0.557208
0.590292
0.615679
0.753598
0.63327
0.569879
0.539185
0.524925
0.522697
0.529696
0.544623
0.566802
0.595623
0.625022
0.641361
0.765466
0.673294
0.619974
0.590569
0.575833
0.571267
0.574709
0.585343
0.603259
0.628912
0.654986
0.662785
0.774609
0.703649
0.65843
0.632775
0.618532
0.612575
0.613387
0.620266
0.633725
0.654429
0.67202
0.674803
0.648872
0.658534
0.674208
0.694332
0.716908
0.741995
0.770007
0.801075
0.834824
0.869805
0.897425
0.868632
0.673338
0.669192
0.67837
0.694234
0.712444
0.733018
0.756098
0.781594
0.808265
0.833135
0.8452
0.807712
0.695431
0.68008
0.683097
0.695067
0.709466
0.725936
0.744651
0.764974
0.78525
0.801459
0.803246
0.765439
0.712481
0.695202
0.689679
0.696625
0.707036
0.719668
0.734409
0.750253
0.765166
0.774946
0.770879
0.735915
0.78229
0.727265
0.690375
0.667491
0.654041
0.647314
0.646016
0.64953
0.658064
0.670777
0.674692
0.668242
0.789019
0.746248
0.715884
0.696679
0.684274
0.677195
0.674175
0.674747
0.67866
0.684356
0.6789
0.676354
0.79504
0.761819
0.737657
0.721093
0.709939
0.702642
0.698321
0.696381
0.696549
0.697392
0.689613
0.686617
0.800495
0.774902
0.755499
0.742137
0.732192
0.724943
0.719546
0.715553
0.712629
0.709839
0.700923
0.69756
0.805443
0.785985
0.771134
0.760095
0.751547
0.744407
0.738186
0.732476
0.727013
0.721264
0.711457
0.707736
0.809909
0.795572
0.784223
0.775966
0.768603
0.761829
0.754841
0.747756
0.740112
0.731881
0.720838
0.716918
0.813868
0.803729
0.795745
0.789543
0.783549
0.777147
0.769539
0.761337
0.751824
0.741596
0.72935
0.725026
0.817178
0.810342
0.804866
0.800647
0.796021
0.789944
0.781974
0.772874
0.761997
0.750284
0.736911
0.732141
0.819479
0.814667
0.810769
0.808292
0.804179
0.798992
0.790326
0.781294
0.769339
0.757296
0.743478
0.73812
0.820545
0.81617
0.813029
0.810721
0.807374
0.802029
0.794007
0.784733
0.773391
0.761513
0.748764
0.742814
0.820539
0.815766
0.812317
0.809637
0.805982
0.800713
0.793104
0.784272
0.773762
0.76273
0.751483
0.745703
0.820102
0.815064
0.811217
0.808005
0.804004
0.798702
0.791378
0.782849
0.772872
0.762309
0.751907
0.746559
0.732926
0.715028
0.698321
0.698938
0.705256
0.714384
0.725524
0.737409
0.747821
0.752873
0.745442
0.715115
0.733266
0.724924
0.704005
0.700449
0.703379
0.70943
0.717458
0.72602
0.732922
0.734653
0.725926
0.699476
0.730113
0.72418
0.706062
0.700903
0.701444
0.704903
0.710211
0.715878
0.719853
0.719266
0.709911
0.687737
0.725896
0.721055
0.706197
0.700376
0.699141
0.700469
0.703504
0.706795
0.708567
0.706396
0.697312
0.67809
0.722023
0.717846
0.705554
0.69931
0.696749
0.696202
0.697243
0.698417
0.6983
0.69512
0.686274
0.67045
0.718533
0.714958
0.704406
0.697836
0.694163
0.692022
0.691416
0.690779
0.68935
0.685373
0.677328
0.663608
0.715616
0.712422
0.703324
0.69621
0.691837
0.688075
0.686127
0.683786
0.681209
0.676757
0.669147
0.658077
0.713026
0.710152
0.702177
0.694797
0.689888
0.684901
0.681853
0.678161
0.67468
0.669811
0.662805
0.653224
0.710954
0.708047
0.70168
0.693859
0.689452
0.683148
0.67992
0.674735
0.670848
0.665281
0.658513
0.649737
0.709105
0.706562
0.701163
0.694795
0.690171
0.68461
0.680619
0.675431
0.670604
0.664595
0.656975
0.64798
0.707916
0.705703
0.701326
0.696198
0.691952
0.687178
0.683096
0.678013
0.672712
0.665966
0.657511
0.647592
0.707433
0.705476
0.701473
0.696969
0.692899
0.68858
0.684474
0.679536
0.674011
0.666938
0.658127
0.647721
)
;

boundaryField
{
    rotor
    {
        type            zeroGradient;
    }
    stator
    {
        type            zeroGradient;
    }
    front
    {
        type            empty;
    }
    back
    {
        type            empty;
    }
    procBoundary0to1
    {
        type            processor;
        value           nonuniform List<scalar> 
20
(
1.07158
1.21333
1.11723
1.02302
0.956354
0.905473
0.872373
0.851691
0.839078
0.831358
0.826902
0.824283
0.822995
0.822347
0.822255
0.822388
0.822917
0.823812
0.824499
0.82448
)
;
    }
    procBoundary0to2
    {
        type            processor;
        value           nonuniform List<scalar> 
20
(
-0.470688
0.264384
0.517139
0.612686
0.651183
0.658529
0.659472
0.658487
0.656405
0.654239
0.651722
0.649519
0.647038
0.645077
0.642847
0.640974
0.639079
0.637443
0.636422
0.636087
)
;
    }
}


// ************************************************************************* //
