/*--------------------------------*- C++ -*----------------------------------*\
  =========                 |
  \\      /  F ield         | OpenFOAM: The Open Source CFD Toolbox
   \\    /   O peration     | Website:  https://openfoam.org
    \\  /    A nd           | Version:  6
     \\/     M anipulation  |
\*---------------------------------------------------------------------------*/
FoamFile
{
    version     2.0;
    format      ascii;
    class       surfaceScalarField;
    location    "2000";
    object      phi;
}
// * * * * * * * * * * * * * * * * * * * * * * * * * * * * * * * * * * * * * //

dimensions      [0 3 -1 0 0 0 0];

internalField   nonuniform List<scalar> 
1468
(
-9.10813e-06
4.36798e-06
-8.85934e-06
-6.31691e-07
-8.07055e-06
-5.42437e-07
-8.44002e-06
2.13368e-08
-8.48123e-06
2.51802e-07
-9.01145e-06
2.00357e-07
-8.91959e-06
1.05908e-07
-9.20596e-06
-1.06557e-08
-8.93945e-06
-6.82321e-08
-9.07619e-06
-1.16772e-07
-8.7471e-06
-1.29297e-07
-1.61357e-07
-8.79218e-06
-1.61753e-06
5.82194e-06
-4.00553e-06
1.63659e-06
-4.91826e-06
3.73973e-07
-5.01527e-06
6.20513e-08
-4.69677e-06
-5.85898e-08
-4.38741e-06
-1.5507e-07
-4.05125e-06
-2.20048e-07
-3.83723e-06
-2.63098e-07
-3.61567e-06
-2.76082e-07
-3.4909e-06
-2.70507e-07
-3.35838e-06
-2.44549e-07
-2.17657e-07
-3.32106e-06
-1.66923e-06
7.4529e-06
-1.5958e-06
1.52418e-06
-1.29566e-06
7.31267e-08
-9.49623e-07
-3.01079e-07
-5.78293e-07
-4.28403e-07
-2.59909e-07
-4.86474e-07
2.66257e-08
-5.03527e-07
2.4635e-07
-4.931e-07
4.32359e-07
-4.57471e-07
5.59874e-07
-4.0526e-07
6.60524e-07
-3.38883e-07
-2.67742e-07
7.07064e-07
-1.55706e-06
8.90901e-06
-5.07015e-07
4.44224e-07
1.86729e-07
-6.2267e-07
6.87184e-07
-8.10325e-07
1.10418e-06
-8.38678e-07
1.44649e-06
-8.33517e-07
1.73988e-06
-7.87816e-07
1.97172e-06
-7.28014e-07
2.16067e-06
-6.36429e-07
2.29433e-06
-5.40817e-07
2.39033e-06
-4.24171e-07
-3.13195e-07
2.43507e-06
-9.70598e-07
9.77753e-06
4.34529e-08
-6.20644e-07
8.71881e-07
-1.48681e-06
1.50146e-06
-1.43453e-06
1.97933e-06
-1.3449e-06
2.39429e-06
-1.226e-06
2.70847e-06
-1.12374e-06
2.9851e-06
-9.7685e-07
3.17401e-06
-8.43995e-07
3.33601e-06
-6.73301e-07
3.41948e-06
-5.24166e-07
-3.45255e-07
3.48158e-06
-1.41565e-06
1.05252e-05
2.41153e-07
-2.43519e-06
1.3595e-06
-2.65074e-06
2.10805e-06
-2.25653e-06
2.72069e-06
-1.94495e-06
3.16103e-06
-1.72482e-06
3.55618e-06
-1.49314e-06
3.82038e-06
-1.28857e-06
4.0634e-06
-1.05385e-06
4.1964e-06
-8.451e-07
4.32093e-06
-6.10896e-07
-4.03139e-07
4.34878e-06
-1.46965e-06
1.17847e-05
4.78092e-07
-4.51948e-06
1.86328e-06
-4.09191e-06
2.80158e-06
-3.23943e-06
3.47831e-06
-2.68645e-06
4.00843e-06
-2.27707e-06
4.40186e-06
-1.933e-06
4.71274e-06
-1.6073e-06
4.92976e-06
-1.3027e-06
5.09451e-06
-1.00552e-06
5.18882e-06
-7.24212e-07
-4.4508e-07
5.24322e-06
-1.98361e-06
1.321e-05
7.79545e-07
-7.3391e-06
2.48519e-06
-5.89458e-06
3.60221e-06
-4.40224e-06
4.37704e-06
-3.50075e-06
4.93813e-06
-2.87626e-06
5.34881e-06
-2.37291e-06
5.64948e-06
-1.93133e-06
5.86358e-06
-1.53249e-06
6.01285e-06
-1.16419e-06
6.10601e-06
-8.19634e-07
-4.90023e-07
6.1511e-06
-1.757e-06
1.50964e-05
1.27425e-06
-1.04463e-05
3.33211e-06
-7.93718e-06
4.59235e-06
-5.70242e-06
5.42203e-06
-4.36453e-06
5.98597e-06
-3.47291e-06
6.37761e-06
-2.79085e-06
6.65002e-06
-2.22514e-06
6.83904e-06
-1.73558e-06
6.9672e-06
-1.29883e-06
7.04692e-06
-9.00545e-07
-5.25081e-07
7.0861e-06
-9.35542e-07
1.59577e-05
2.31505e-06
-1.36448e-05
4.50738e-06
-1.01981e-05
5.83535e-06
-7.0368e-06
6.63959e-06
-5.19001e-06
7.148e-06
-4.00333e-06
7.47833e-06
-3.14076e-06
7.6966e-06
-2.45976e-06
7.84343e-06
-1.89073e-06
7.94013e-06
-1.39903e-06
8.00092e-06
-9.57767e-07
-5.48557e-07
8.0316e-06
2.69647e-06
1.3561e-05
4.69321e-06
-1.56362e-05
6.39544e-06
-1.18279e-05
7.43678e-06
-8.09269e-06
8.04629e-06
-5.81803e-06
8.4084e-06
-4.38348e-06
8.62863e-06
-3.38142e-06
8.76817e-06
-2.61436e-06
8.85758e-06
-1.99158e-06
8.91651e-06
-1.46153e-06
8.95347e-06
-9.93533e-07
-5.62966e-07
8.97433e-06
1.08447e-05
2.7502e-06
9.4039e-06
-1.40986e-05
9.22011e-06
-1.16768e-05
9.42665e-06
-8.28503e-06
9.60722e-06
-5.99562e-06
9.7236e-06
-4.50769e-06
9.79533e-06
-3.46221e-06
9.83804e-06
-2.6661e-06
9.86414e-06
-2.02302e-06
9.88104e-06
-1.47869e-06
9.89318e-06
-1.00025e-06
9.90311e-06
-5.63438e-07
-8.41877e-06
-1.7367e-07
-8.38902e-06
-1.95179e-07
-8.00429e-06
-1.95524e-07
-7.90903e-06
-2.37579e-07
-7.44669e-06
-3.04563e-07
-7.15051e-06
-4.12983e-07
-6.52074e-06
-5.28071e-07
-5.92488e-06
-6.20203e-07
-5.3908e-06
-4.61547e-07
-4.57668e-06
-7.58722e-07
-2.19517e-06
-2.27812e-06
-2.16294e-06
-3.28705e-06
-1.86899e-07
-3.33183e-06
-1.61421e-07
-3.37022e-06
-1.35864e-07
-3.4905e-06
-1.2517e-07
-3.64605e-06
-1.33217e-07
-3.90122e-06
-1.6503e-07
-4.1996e-06
-2.22271e-07
-4.48763e-06
-3.32741e-07
-4.3663e-06
-5.71548e-07
-3.8238e-06
-1.27665e-06
-2.81476e-06
-3.23158e-06
-4.96657e-06
7.22397e-07
-1.94166e-07
6.84254e-07
-1.23779e-07
6.15237e-07
-5.75003e-08
4.92906e-07
-2.40869e-09
3.29589e-07
3.82111e-08
1.07395e-07
5.71238e-08
-1.55841e-07
4.48068e-08
-4.56712e-07
-3.13108e-08
-7.67668e-07
-2.54948e-07
-1.16055e-06
-8.64448e-07
-1.85242e-06
-2.52427e-06
-6.81345e-06
2.4428e-06
-1.90323e-07
2.39993e-06
-7.915e-08
2.31806e-06
3.60693e-08
2.18434e-06
1.3538e-07
2.00513e-06
2.28344e-07
1.77022e-06
2.95996e-07
1.48687e-06
3.38457e-07
1.14237e-06
3.17874e-07
7.27504e-07
1.7222e-07
1.84969e-07
-3.16841e-07
-3.00479e-07
-2.02903e-06
-7.03955e-06
3.47043e-06
-1.91516e-07
3.43533e-06
-1.57422e-08
3.3306e-06
1.3648e-07
3.19104e-06
3.01994e-07
2.97753e-06
4.44126e-07
2.71416e-06
5.86746e-07
2.36247e-06
6.95049e-07
1.92587e-06
7.73656e-07
1.34129e-06
7.66652e-07
4.89782e-07
5.47146e-07
-7.05105e-07
-6.96684e-07
-7.69264e-06
4.36801e-06
-1.73176e-07
4.3008e-06
3.50173e-08
4.21389e-06
2.6231e-07
4.04171e-06
4.74736e-07
3.8262e-06
7.01239e-07
3.51138e-06
9.13665e-07
3.11272e-06
1.12964e-06
2.57385e-06
1.32972e-06
1.84121e-06
1.53194e-06
7.53776e-07
1.72903e-06
-1.03166e-06
1.13194e-06
-8.39563e-06
5.23709e-06
-1.74626e-07
5.19194e-06
1.01113e-07
5.08657e-06
3.7751e-07
4.92854e-06
6.6714e-07
4.69191e-06
9.64194e-07
4.37006e-06
1.27834e-06
3.92543e-06
1.60453e-06
3.3332e-06
1.96904e-06
2.51027e-06
2.40923e-06
1.22145e-06
3.02305e-06
-7.99912e-07
3.55601e-06
-9.14281e-06
6.1511e-06
-1.66804e-07
6.10559e-06
1.57462e-07
6.01373e-06
4.94034e-07
5.86087e-06
8.45949e-07
5.6385e-06
1.22572e-06
5.31604e-06
1.63442e-06
4.87273e-06
2.0918e-06
4.25293e-06
2.62148e-06
3.3725e-06
3.31749e-06
2.11458e-06
4.42525e-06
2.0413e-07
5.43087e-06
-8.51634e-06
7.0871e-06
-1.60206e-07
7.05243e-06
2.0883e-07
6.97449e-06
5.93369e-07
6.8462e-06
1.00468e-06
6.64811e-06
1.45537e-06
6.35897e-06
1.95903e-06
5.94111e-06
2.54144e-06
5.34604e-06
3.25157e-06
4.49428e-06
4.21045e-06
3.17127e-06
5.69298e-06
1.4057e-06
7.55328e-06
-7.28121e-06
8.03568e-06
-1.52793e-07
8.01353e-06
2.49104e-07
7.9575e-06
6.70275e-07
7.86181e-06
1.12811e-06
7.70669e-06
1.63522e-06
7.47486e-06
2.21972e-06
7.1257e-06
2.91313e-06
6.60683e-06
3.78777e-06
5.82014e-06
4.99571e-06
4.68365e-06
6.92937e-06
3.10266e-06
8.92463e-06
-4.12889e-06
8.98224e-06
-1.49382e-07
8.97395e-06
2.73094e-07
8.945e-06
7.19353e-07
8.88709e-06
1.20656e-06
8.79047e-06
1.75299e-06
8.63723e-06
2.39059e-06
8.39959e-06
3.16473e-06
8.03173e-06
4.1671e-06
7.47521e-06
5.56445e-06
6.64023e-06
7.66813e-06
5.40617e-06
1.0206e-05
1.12665e-06
9.91553e-06
-1.481e-07
9.9223e-06
2.806e-07
9.9208e-06
7.38437e-07
9.90398e-06
1.23675e-06
9.87087e-06
1.79969e-06
9.81229e-06
2.45509e-06
9.72296e-06
3.25907e-06
9.5815e-06
4.30156e-06
9.35465e-06
5.76525e-06
9.04983e-06
7.9679e-06
8.30393e-06
1.08111e-05
9.34734e-06
1.72496e-05
-2.88935e-06
1.42633e-05
-1.10707e-05
1.23344e-05
-9.66134e-06
1.14999e-05
-7.44038e-06
1.11651e-05
-5.65724e-06
1.10132e-05
-4.36177e-06
1.09323e-05
-3.38978e-06
1.08805e-05
-2.62566e-06
1.08457e-05
-1.99575e-06
1.08225e-05
-1.45915e-06
1.08101e-05
-9.86608e-07
-5.57425e-07
1.08088e-05
1.97211e-05
-2.48136e-06
1.63928e-05
-7.66643e-06
1.42405e-05
-7.51507e-06
1.31045e-05
-6.26661e-06
1.25145e-05
-5.04887e-06
1.21934e-05
-4.02956e-06
1.20009e-05
-3.19536e-06
1.18762e-05
-2.5012e-06
1.17906e-05
-1.91098e-06
1.1733e-05
-1.39962e-06
1.16979e-05
-9.46631e-07
-5.33431e-07
1.16859e-05
1.93414e-05
-1.77527e-06
1.70665e-05
-5.35669e-06
1.53566e-05
-5.72682e-06
1.428e-05
-5.16493e-06
1.3636e-05
-4.38791e-06
1.32423e-05
-3.62664e-06
1.29884e-05
-2.94073e-06
1.2816e-05
-2.33107e-06
1.26936e-05
-1.79283e-06
1.26083e-05
-1.31604e-06
1.25535e-05
-8.9147e-07
-5.07819e-07
1.25255e-05
1.88132e-05
-1.29878e-06
1.73487e-05
-3.84005e-06
1.60698e-05
-4.43982e-06
1.51729e-05
-4.22852e-06
1.45723e-05
-3.75509e-06
1.41706e-05
-3.20411e-06
1.38957e-05
-2.65097e-06
1.36986e-05
-2.12636e-06
1.3553e-05
-1.64134e-06
1.34448e-05
-1.20421e-06
1.33669e-05
-8.1185e-07
1.33226e-05
-4.48901e-07
1.08268e-05
-1.55696e-07
1.08497e-05
2.71012e-07
1.08725e-05
7.28074e-07
1.08954e-05
1.22465e-06
1.09207e-05
1.78065e-06
1.0957e-05
2.42109e-06
1.10217e-05
3.18983e-06
1.1157e-05
4.15606e-06
1.14577e-05
5.4436e-06
1.21176e-05
7.23675e-06
1.34293e-05
9.44665e-06
1.1264e-05
1.17125e-05
-1.71437e-07
1.17504e-05
2.45136e-07
1.17946e-05
6.91633e-07
1.18497e-05
1.1748e-06
1.19217e-05
1.70664e-06
1.20289e-05
2.30808e-06
1.22021e-05
3.00284e-06
1.25081e-05
3.83004e-06
1.30765e-05
4.83888e-06
1.41897e-05
6.08312e-06
1.62108e-05
7.36212e-06
7.47032e-06
1.25693e-05
-2.04128e-07
1.26222e-05
2.02688e-07
1.26849e-05
6.35868e-07
1.27637e-05
1.09806e-06
1.28689e-05
1.59876e-06
1.30195e-05
2.14868e-06
1.32505e-05
2.75784e-06
1.36239e-05
3.43583e-06
1.42533e-05
4.17947e-06
1.5341e-05
4.9469e-06
1.71691e-05
5.49775e-06
4.73426e-06
1.33945e-05
-2.67783e-07
1.34668e-05
1.37722e-07
1.35465e-05
5.59838e-07
1.36431e-05
9.98295e-07
1.37693e-05
1.46479e-06
1.39434e-05
1.96023e-06
1.41973e-05
2.48536e-06
1.45795e-05
3.02871e-06
1.51689e-05
3.55911e-06
1.60895e-05
3.99074e-06
1.74822e-05
4.07584e-06
3.03327e-06
3.01574e-06
-9.43917e-07
2.02847e-06
-2.82272e-06
1.10862e-06
-3.45727e-06
3.98291e-07
-3.48865e-06
-1.13522e-07
-3.21803e-06
-4.79533e-07
-2.82092e-06
-7.44992e-07
-2.37462e-06
-9.45355e-07
-1.92149e-06
-1.10328e-06
-1.48175e-06
-1.23183e-06
-1.07569e-06
-1.3367e-06
-7.05218e-07
-3.91668e-07
-1.41342e-06
2.33275e-06
-6.98285e-07
1.67256e-06
-2.12665e-06
9.91966e-07
-2.76655e-06
4.34638e-07
-2.89016e-06
8.29846e-10
-2.75081e-06
-3.27026e-07
-2.46417e-06
-5.77635e-07
-2.10321e-06
-7.75582e-07
-1.70762e-06
-9.43409e-07
-1.30278e-06
-1.09868e-06
-9.12658e-07
-1.26609e-06
-5.482e-07
-2.43881e-07
-1.38443e-06
1.84634e-06
-5.34765e-07
1.39079e-06
-1.64735e-06
8.91692e-07
-2.21776e-06
4.45577e-07
-2.41588e-06
8.04973e-08
-2.3601e-06
-2.08974e-07
-2.15282e-06
-4.38992e-07
-1.85762e-06
-6.27882e-07
-1.50756e-06
-7.98116e-07
-1.12612e-06
-9.81367e-07
-7.29006e-07
-1.22985e-06
-2.86908e-07
-1.13875e-07
-1.39464e-06
1.4912e-06
-4.24485e-07
1.17345e-06
-1.30539e-06
7.92676e-07
-1.82589e-06
4.38753e-07
-2.02763e-06
1.33496e-07
-2.02118e-06
-1.18663e-07
-1.87211e-06
-3.23931e-07
-1.62713e-06
-4.95785e-07
-1.31645e-06
-6.51747e-07
-9.54516e-07
-8.23852e-07
-5.42603e-07
-1.11554e-06
-8.52708e-09
-9.92786e-07
-1.77534e-07
-1.28245e-06
-3.78166e-07
-1.17651e-06
4.21711e-08
-1.07801e-06
4.64329e-07
-9.65923e-07
8.8397e-07
-8.25289e-07
1.31641e-06
-6.36709e-07
1.75942e-06
-3.73852e-07
2.20527e-06
-6.71165e-11
2.63383e-06
5.32689e-07
3.00026e-06
1.28292e-06
3.2108e-06
2.27639e-06
3.05902e-06
2.03306e-06
-1.1832e-06
-5.76124e-07
-1.02346e-06
-1.08186e-07
-9.04556e-07
3.46215e-07
-7.84439e-07
7.58739e-07
-6.41111e-07
1.16226e-06
-4.54824e-07
1.5586e-06
-2.04349e-07
1.93643e-06
1.35434e-07
2.27332e-06
5.90758e-07
2.52165e-06
1.18231e-06
2.59621e-06
1.89136e-06
2.33708e-06
1.4147e-06
-1.11893e-06
-8.11288e-07
-8.85647e-07
-3.29291e-07
-7.51755e-07
2.1478e-07
-6.3202e-07
6.35241e-07
-4.94078e-07
1.01599e-06
-3.19021e-07
1.37089e-06
-8.9817e-08
1.69198e-06
2.09011e-07
1.95633e-06
5.90017e-07
2.12134e-06
1.05379e-06
2.11397e-06
1.56285e-06
1.81356e-06
1.02684e-06
-9.60479e-07
-8.38756e-07
-7.18242e-07
-5.64114e-07
-6.03485e-07
1.00263e-07
-4.98371e-07
5.24416e-07
-3.73454e-07
8.81599e-07
-2.14433e-07
1.19947e-06
-9.97621e-09
1.47337e-06
2.48713e-07
1.68284e-06
5.64865e-07
1.79019e-06
9.28936e-07
1.73656e-06
1.30181e-06
1.43646e-06
7.69121e-07
1.22612e-06
-3.47626e-07
9.95861e-07
-1.05494e-06
7.08311e-07
-1.50003e-06
4.22616e-07
-1.71721e-06
1.67492e-07
-1.74194e-06
-4.91084e-08
-1.63407e-06
-2.28319e-07
-1.42985e-06
-3.75912e-07
-1.1552e-06
-4.97063e-07
-8.22873e-07
-5.91972e-07
-4.43817e-07
-6.39983e-07
6.55874e-08
-8.40273e-07
1.02447e-06
-2.92399e-07
8.55797e-07
-8.69115e-07
6.30112e-07
-1.26414e-06
4.01688e-07
-1.45758e-06
1.88856e-07
-1.50013e-06
4.4325e-09
-1.42134e-06
-1.4964e-07
-1.2516e-06
-2.72913e-07
-1.0105e-06
-3.64124e-07
-7.1455e-07
-4.05524e-07
-3.84437e-07
-2.95571e-07
-4.21046e-08
-1.02497e-06
8.68199e-07
-2.50096e-07
7.40205e-07
-7.24644e-07
5.65943e-07
-1.05794e-06
3.79177e-07
-1.2504e-06
2.01938e-07
-1.30201e-06
4.52692e-08
-1.24555e-06
-8.57715e-08
-1.10304e-06
-1.88467e-07
-8.93885e-07
-2.58357e-07
-6.33285e-07
-2.8412e-07
-3.51374e-07
-1.94828e-07
-9.85921e-08
-1.21507e-06
7.45792e-07
-2.17356e-07
6.48392e-07
-6.13231e-07
5.07936e-07
-9.08722e-07
3.56988e-07
-1.0738e-06
2.09277e-07
-1.12921e-06
7.65608e-08
-1.08921e-06
-3.46813e-08
-9.69904e-07
-1.20342e-07
-7.89309e-07
-1.75081e-07
-5.62335e-07
-1.89069e-07
-3.2087e-07
-1.26458e-07
-1.51268e-07
-1.22454e-06
6.49204e-07
-1.89594e-07
5.72525e-07
-5.22478e-07
4.61626e-07
-7.72087e-07
3.36337e-07
-9.32571e-07
2.13147e-07
-9.87699e-07
1.0039e-07
-9.61384e-07
6.00464e-09
-8.59513e-07
-6.61123e-08
-7.05457e-07
-1.09613e-07
-5.07794e-07
-1.1852e-07
-3.04949e-07
-6.22967e-08
-1.78002e-07
-1.26543e-06
5.75402e-07
-1.6641e-07
5.15149e-07
-4.49452e-07
4.22911e-07
-6.72213e-07
3.19437e-07
-8.0639e-07
2.15851e-07
-8.65112e-07
1.19474e-07
-8.45115e-07
3.83763e-08
-7.61601e-07
-2.30347e-08
-6.28062e-07
-5.90994e-08
-4.58597e-07
-6.35972e-08
-2.87012e-07
-2.34944e-08
-2.05616e-07
-1.17874e-06
5.27673e-07
-1.45042e-07
4.77918e-07
-3.85616e-07
4.01656e-07
-5.73582e-07
3.10008e-07
-7.02294e-07
2.22797e-07
-7.5724e-07
1.36543e-07
-7.44724e-07
6.60637e-08
-6.73954e-07
1.10416e-08
-5.60487e-07
-1.99691e-08
-4.15828e-07
-2.38037e-08
-2.73852e-07
1.35571e-08
-2.1662e-07
-1.13193e-06
5.19379e-07
-1.23151e-07
4.76249e-07
-3.27375e-07
4.05781e-07
-4.9237e-07
3.20159e-07
-5.91551e-07
2.42166e-07
-6.58909e-07
1.59432e-07
-6.40937e-07
9.39902e-08
-5.89686e-07
4.06285e-08
-4.90554e-07
1.13942e-08
-3.7124e-07
8.01148e-09
-2.57203e-07
3.82846e-08
-2.30159e-07
-1.0198e-06
5.78249e-07
-1.00825e-07
5.34995e-07
-2.69214e-07
4.6352e-07
-3.99983e-07
3.67563e-07
-5.05786e-07
2.93228e-07
-5.36598e-07
2.00721e-07
-5.42256e-07
1.33404e-07
-4.90561e-07
7.38504e-08
-4.16408e-07
4.16572e-08
-3.2298e-07
3.64887e-08
-2.34826e-07
6.55445e-08
-2.44252e-07
-9.12131e-07
7.52771e-07
-6.99633e-08
7.01841e-07
-1.92105e-07
6.08444e-07
-3.05929e-07
4.95715e-07
-3.69193e-07
4.01206e-07
-3.76782e-07
2.89612e-07
-3.80247e-07
2.03184e-07
-3.44503e-07
1.28132e-07
-2.95799e-07
8.57795e-08
-2.3613e-07
7.3789e-08
-1.87292e-07
1.00921e-07
-2.36903e-07
-7.38436e-07
1.05993e-06
9.00758e-09
9.88407e-07
-5.70549e-08
8.58549e-07
-1.42718e-07
7.14465e-07
-1.33553e-07
5.91188e-07
-5.02729e-08
4.51739e-07
-5.80047e-08
3.38767e-07
-3.29796e-08
2.4296e-07
-3.3995e-08
1.85484e-07
-2.77292e-08
1.62129e-07
-3.867e-08
1.69652e-07
-1.42101e-07
-4.13108e-07
8.23209e-07
7.73434e-07
6.49431e-07
5.6269e-07
5.53663e-07
5.4154e-07
5.46653e-07
5.47464e-07
5.48477e-07
5.30747e-07
4.13108e-07
-4.61563e-07
-2.95436e-07
-4.89469e-07
-5.25852e-07
-4.55372e-07
6.78874e-08
-3.80006e-07
4.45868e-07
-2.73285e-07
7.66997e-07
-1.32491e-07
1.04814e-06
4.71928e-08
1.28091e-06
2.69089e-07
1.44729e-06
5.30869e-07
1.51463e-06
8.1886e-07
1.43671e-06
1.09481e-06
1.15119e-06
5.97796e-07
-1.50249e-07
-1.47123e-07
-3.29156e-07
-3.43501e-07
-3.34334e-07
7.19022e-08
-2.81046e-07
3.87608e-07
-1.91186e-07
6.69981e-07
-6.82719e-08
9.1609e-07
8.83728e-08
1.11507e-06
2.77903e-07
1.24848e-06
4.94938e-07
1.28929e-06
7.23935e-07
1.20081e-06
9.33074e-07
9.41778e-07
4.74912e-07
-1.17114e-07
4.15706e-08
-2.34073e-07
-2.19204e-07
-2.42422e-07
8.16308e-08
-2.01057e-07
3.44136e-07
-1.24864e-07
5.87191e-07
-1.76557e-08
8.00879e-07
1.18253e-07
9.69201e-07
2.80068e-07
1.07696e-06
4.60368e-07
1.09945e-06
6.44222e-07
1.00905e-06
8.03827e-07
7.7614e-07
3.8916e-07
-8.39068e-08
1.05157e-07
-1.64851e-07
-1.38924e-07
-1.71685e-07
8.65959e-08
-1.37728e-07
3.06056e-07
-7.18062e-08
5.16538e-07
2.17609e-08
7.01742e-07
1.39921e-07
8.45946e-07
2.7824e-07
9.34172e-07
4.28685e-07
9.45207e-07
5.77225e-07
8.57959e-07
7.01907e-07
6.53353e-07
3.2319e-07
-5.26439e-08
2.02571e-07
-1.12576e-07
-7.44247e-08
-1.16933e-07
9.20527e-08
-8.73459e-08
2.75505e-07
-2.94779e-08
4.53384e-07
5.2938e-08
6.14458e-07
1.55932e-07
7.35546e-07
2.74785e-07
8.0974e-07
4.00948e-07
8.12527e-07
5.22297e-07
7.32118e-07
6.19844e-07
5.51307e-07
2.75935e-07
-3.06306e-08
1.93211e-07
-7.42389e-08
-3.41395e-08
-7.48163e-08
8.95551e-08
-4.82565e-08
2.46499e-07
4.5089e-09
3.97789e-07
7.76033e-08
5.39042e-07
1.68999e-07
6.42485e-07
2.72007e-07
7.05513e-07
3.79317e-07
7.04781e-07
4.79509e-07
6.31498e-07
5.58127e-07
4.75333e-07
2.36943e-07
-1.36156e-08
2.32557e-07
-4.71007e-08
-5.95959e-10
-4.2345e-08
8.90494e-08
-1.7776e-08
2.18236e-07
3.2771e-08
3.46873e-07
9.94723e-08
4.67651e-07
1.83098e-07
5.56374e-07
2.75285e-07
6.10092e-07
3.69024e-07
6.0781e-07
4.54894e-07
5.44068e-07
5.19287e-07
4.08162e-07
2.08722e-07
-3.43466e-09
1.9619e-07
-2.82351e-08
2.28869e-08
-1.82155e-08
7.47844e-08
6.97707e-09
1.94078e-07
5.87599e-08
2.92035e-07
1.24331e-07
4.03274e-07
2.06183e-07
4.73512e-07
2.94761e-07
5.2256e-07
3.82747e-07
5.20294e-07
4.61726e-07
4.65289e-07
5.19348e-07
3.51961e-07
1.82856e-07
8.39041e-09
2.3347e-07
-1.74585e-08
2.9047e-08
4.34111e-09
8.17549e-08
2.88266e-08
1.42136e-07
9.25875e-08
2.48104e-07
1.62339e-07
3.13703e-07
2.55087e-07
3.89086e-07
3.50699e-07
4.18966e-07
4.45179e-07
4.24362e-07
5.28875e-07
3.82096e-07
5.8797e-07
2.9329e-07
1.60844e-07
9.89125e-09
1.87182e-07
-3.47774e-09
3.66874e-08
2.42686e-08
6.11027e-08
6.35829e-08
9.25324e-08
1.43094e-07
1.70418e-07
2.37432e-07
2.1177e-07
3.55336e-07
2.7121e-07
4.79366e-07
2.92157e-07
6.00168e-07
3.0256e-07
7.06623e-07
2.79117e-07
7.81527e-07
2.22861e-07
1.31109e-07
2.41025e-08
9.6566e-08
2.14793e-08
1.73809e-08
6.18466e-08
3.68653e-08
1.18541e-07
8.56132e-09
2.27105e-07
6.65119e-08
3.57581e-07
6.15095e-08
5.20932e-07
1.08768e-07
6.93212e-07
1.13919e-07
8.64024e-07
1.31684e-07
1.0161e-06
1.38302e-07
1.12587e-06
1.23684e-07
8.94322e-08
8.72753e-08
1.09588e-07
1.39499e-07
1.4968e-07
2.11302e-07
2.73163e-07
3.80541e-07
4.94266e-07
6.28471e-07
7.69354e-07
8.93472e-07
)
;

boundaryField
{
    rotor
    {
        type            calculated;
        value           uniform 0;
    }
    stator
    {
        type            calculated;
        value           uniform -0;
    }
    front
    {
        type            empty;
        value           nonuniform 0();
    }
    back
    {
        type            empty;
        value           nonuniform 0();
    }
    procBoundary0to1
    {
        type            processor;
        value           nonuniform List<scalar> 
20
(
-1.15027e-05
-2.00995e-05
-2.00002e-05
-1.92546e-05
-3.33665e-06
-2.54936e-06
-1.98531e-06
-1.57889e-06
-1.28292e-06
-1.06151e-06
-8.9388e-07
-7.63449e-07
-6.62318e-07
-5.85117e-07
-5.35809e-07
-5.26497e-07
-5.856e-07
-7.61956e-07
-1.0678e-06
-7.81244e-07
)
;
    }
    procBoundary0to2
    {
        type            processor;
        value           nonuniform List<scalar> 
20
(
1.15188e-05
2.00069e-05
1.99105e-05
1.91826e-05
3.28355e-06
2.50984e-06
1.95719e-06
1.56001e-06
1.27182e-06
1.05676e-06
8.94313e-07
7.6833e-07
6.7084e-07
5.96653e-07
5.50334e-07
5.44914e-07
6.13001e-07
8.10038e-07
1.16934e-06
9.83673e-07
)
;
    }
}


// ************************************************************************* //
