/*--------------------------------*- C++ -*----------------------------------*\
  =========                 |
  \\      /  F ield         | OpenFOAM: The Open Source CFD Toolbox
   \\    /   O peration     | Website:  https://openfoam.org
    \\  /    A nd           | Version:  6
     \\/     M anipulation  |
\*---------------------------------------------------------------------------*/
FoamFile
{
    version     2.0;
    format      ascii;
    class       volScalarField;
    location    "2000";
    object      p;
}
// * * * * * * * * * * * * * * * * * * * * * * * * * * * * * * * * * * * * * //

dimensions      [0 2 -2 0 0 0 0];

internalField   nonuniform List<scalar> 
768
(
0.509094
0.330382
0.196966
0.112174
0.0708647
0.050655
0.0523022
0.0550293
0.07854
0.0976995
0.128781
0.149244
0.507781
0.37714
0.216697
0.0772895
0.0312392
0.0304134
0.0520847
0.0772074
0.11329
0.14824
0.189285
0.224552
0.346781
0.331282
0.156488
-0.0366488
-0.100911
-0.0866175
-0.0411277
0.0113449
0.0694094
0.126561
0.185529
0.240784
0.182516
0.183243
0.0258708
-0.159806
-0.211262
-0.178401
-0.112932
-0.0401889
0.0356924
0.109475
0.183057
0.253099
-0.00451735
0.0547536
-0.107715
-0.268245
-0.288904
-0.232019
-0.148806
-0.0616493
0.0258729
0.109925
0.192527
0.271208
-0.179823
-0.0868659
-0.237199
-0.359369
-0.344876
-0.261617
-0.163927
-0.0637759
0.0302888
0.122663
0.208867
0.294609
-0.36543
-0.229197
-0.353508
-0.430617
-0.375031
-0.271075
-0.15739
-0.0518462
0.0497942
0.142543
0.233777
0.318837
-0.552676
-0.373929
-0.456644
-0.474346
-0.379763
-0.25417
-0.132532
-0.0217827
0.0792446
0.172876
0.261683
0.347091
-0.771771
-0.536644
-0.544448
-0.489549
-0.355476
-0.21446
-0.0888266
0.0209077
0.118778
0.208673
0.293622
0.375735
-1.00426
-0.679597
-0.589742
-0.461209
-0.297669
-0.150862
-0.0290512
0.0743937
0.16517
0.248593
0.327505
0.404747
-1.20312
-0.758054
-0.550418
-0.37063
-0.201925
-0.0660105
0.042879
0.134332
0.215139
0.289811
0.361725
0.432753
-1.28325
-0.6606
-0.36441
-0.201341
-0.0700463
0.0350291
0.121966
0.197291
0.265909
0.330887
0.395018
0.459418
0.179306
0.198466
0.222604
0.232175
0.238672
0.229358
0.216135
0.189828
0.153236
0.0286588
-0.122404
-0.135144
0.262316
0.29279
0.322317
0.341688
0.356091
0.359713
0.357603
0.339644
0.277086
0.115971
-0.0495471
-0.083065
0.29549
0.345147
0.392047
0.432183
0.467481
0.494918
0.51318
0.507686
0.434312
0.240791
0.0734643
0.0876397
0.321674
0.386139
0.4482
0.505136
0.558328
0.604883
0.642796
0.657622
0.607452
0.433201
0.282802
0.331197
0.348524
0.422118
0.494094
0.56233
0.627877
0.689106
0.744293
0.784163
0.77226
0.641152
0.510411
0.590542
0.375298
0.456364
0.533462
0.610466
0.684238
0.757126
0.826549
0.889179
0.913117
0.823104
0.70238
0.83116
0.40438
0.485766
0.568369
0.648028
0.729024
0.808169
0.889691
0.967176
1.01544
0.961683
0.862405
1.03122
0.430659
0.51308
0.594713
0.676729
0.758499
0.84296
0.928961
1.01675
1.08902
1.06814
0.981751
1.18449
0.456441
0.536174
0.615907
0.695666
0.777121
0.861175
0.950873
1.04613
1.13053
1.14709
1.09135
1.29764
0.48084
0.556475
0.63201
0.707752
0.78573
0.867174
0.956046
1.05356
1.15567
1.20347
1.17272
1.38349
0.503555
0.573934
0.643899
0.714368
0.78653
0.863128
0.947699
1.0439
1.1482
1.23078
1.24374
1.39819
0.524525
0.588956
0.652647
0.716745
0.782071
0.851715
0.927849
1.015
1.11622
1.21187
1.25905
1.40978
-0.407081
-0.28444
-0.0730164
0.00709171
0.0734553
0.138247
0.199759
0.258026
0.314165
0.369711
0.426104
0.484089
0.345248
0.119351
0.154532
0.172275
0.195588
0.229927
0.270176
0.31346
0.358453
0.405452
0.454702
0.506615
0.599009
0.353315
0.306926
0.290206
0.289785
0.304501
0.329499
0.36105
0.397113
0.437017
0.48048
0.526794
0.690154
0.484585
0.410239
0.375536
0.361858
0.364396
0.378923
0.401711
0.430773
0.465279
0.503885
0.544266
0.543759
0.60193
0.659243
0.716505
0.775093
0.836627
0.903127
0.976087
1.05345
1.12851
1.14785
1.07158
0.561727
0.613499
0.664246
0.715026
0.767147
0.821299
0.878987
0.940364
1.00484
1.06547
1.11443
1.21333
0.578965
0.623997
0.668265
0.713405
0.7597
0.807839
0.858561
0.912195
0.967948
1.02502
1.0803
1.11723
0.597121
0.634069
0.672066
0.712173
0.753443
0.796394
0.841369
0.889048
0.93902
0.989342
1.03386
1.02302
0.72318
0.56007
0.48062
0.438807
0.418529
0.414092
0.421564
0.437936
0.461595
0.492075
0.526723
0.560822
0.725294
0.600735
0.52914
0.487889
0.465435
0.457107
0.459649
0.470948
0.490061
0.517297
0.54869
0.57235
0.721481
0.625465
0.563588
0.525004
0.502245
0.491593
0.490595
0.497723
0.512677
0.53653
0.562615
0.576785
0.716304
0.641218
0.588476
0.553302
0.531169
0.519172
0.515513
0.518906
0.529228
0.547138
0.562738
0.564571
0.618584
0.645802
0.678334
0.714329
0.751513
0.789877
0.829936
0.871934
0.915222
0.957069
0.986922
0.956354
0.64635
0.660522
0.687593
0.720124
0.753654
0.78793
0.823465
0.860039
0.89635
0.928228
0.943482
0.905473
0.67635
0.677787
0.69841
0.727327
0.757185
0.787673
0.818956
0.850499
0.880454
0.903843
0.909654
0.872373
0.709549
0.702533
0.712391
0.73576
0.76143
0.7881
0.815397
0.84243
0.86689
0.884212
0.884632
0.851691
0.710447
0.651213
0.606498
0.574902
0.553725
0.540975
0.535139
0.535116
0.540263
0.549091
0.546854
0.532957
0.704965
0.65749
0.619666
0.591515
0.571588
0.558472
0.550955
0.547969
0.548535
0.549913
0.538093
0.530815
0.699428
0.661296
0.629388
0.604458
0.585813
0.572538
0.563681
0.558298
0.555346
0.552488
0.539498
0.534323
0.694585
0.663464
0.636616
0.614584
0.597334
0.584074
0.574263
0.566963
0.561379
0.555706
0.543527
0.538818
0.689691
0.66465
0.642147
0.622822
0.606844
0.593678
0.583106
0.57426
0.566719
0.559052
0.547343
0.543249
0.685631
0.665074
0.64647
0.629431
0.614822
0.601771
0.590697
0.580592
0.571533
0.562287
0.550935
0.547007
0.681654
0.664991
0.649944
0.634774
0.621584
0.60841
0.597156
0.585808
0.575791
0.565243
0.554057
0.550467
0.678237
0.664517
0.652228
0.638695
0.626654
0.613516
0.602146
0.589941
0.579277
0.567885
0.556994
0.553443
0.675703
0.662952
0.653352
0.639958
0.629584
0.615703
0.605109
0.591926
0.581633
0.569725
0.559665
0.556085
0.672968
0.661425
0.65127
0.639117
0.628091
0.615281
0.60417
0.592017
0.581655
0.570899
0.561845
0.558267
0.671512
0.659653
0.648744
0.636665
0.625176
0.612872
0.601779
0.590558
0.580683
0.571137
0.563264
0.559856
0.670924
0.658931
0.647565
0.635488
0.623688
0.611641
0.600538
0.589816
0.580181
0.571239
0.563882
0.560707
0.751331
0.734246
0.729131
0.74497
0.766123
0.789088
0.812751
0.835765
0.855796
0.868444
0.866579
0.839078
0.760624
0.753415
0.742551
0.753317
0.7706
0.790204
0.810615
0.830188
0.846602
0.856349
0.853507
0.831358
0.763807
0.759681
0.751498
0.760134
0.774502
0.79129
0.808808
0.825474
0.839055
0.846634
0.844151
0.826902
0.765863
0.762918
0.758127
0.765648
0.777833
0.792159
0.807259
0.821418
0.832835
0.839178
0.837355
0.824283
0.767617
0.765529
0.763279
0.770113
0.780449
0.792769
0.805621
0.817821
0.827427
0.833186
0.832386
0.822995
0.769564
0.768135
0.767709
0.773792
0.782666
0.793086
0.804172
0.814542
0.82299
0.828396
0.828759
0.822347
0.771385
0.770678
0.771494
0.776936
0.784439
0.793319
0.802677
0.811748
0.819095
0.824759
0.826101
0.822255
0.773183
0.773177
0.774909
0.779809
0.786217
0.793847
0.801807
0.809864
0.816365
0.822411
0.824408
0.822388
0.774712
0.775449
0.778057
0.782622
0.788578
0.795274
0.802424
0.809653
0.81566
0.821749
0.824094
0.822917
0.775858
0.777262
0.780631
0.785649
0.791689
0.798401
0.805281
0.812109
0.817787
0.82337
0.825105
0.823812
0.776369
0.778141
0.782224
0.787873
0.794505
0.801549
0.808682
0.815278
0.820945
0.825434
0.826493
0.824499
0.77624
0.778206
0.782626
0.788606
0.795558
0.80282
0.810114
0.816658
0.822309
0.826156
0.826867
0.82448
)
;

boundaryField
{
    rotor
    {
        type            zeroGradient;
    }
    stator
    {
        type            zeroGradient;
    }
    front
    {
        type            empty;
    }
    back
    {
        type            empty;
    }
    procBoundary1to0
    {
        type            processor;
        value           nonuniform List<scalar> 
20
(
-0.481812
0.296712
0.571643
0.682839
0.734553
0.753598
0.765466
0.774609
0.78229
0.789019
0.79504
0.800495
0.805443
0.809909
0.813868
0.817178
0.819479
0.820545
0.820539
0.820102
)
;
    }
    procBoundary1to3
    {
        type            processor;
        value           nonuniform List<scalar> 
20
(
1.1747
1.27887
1.15495
1.03592
0.948801
0.880135
0.831529
0.796626
0.771256
0.751597
0.736376
0.72361
0.713254
0.703993
0.69637
0.689806
0.684972
0.682692
0.68192
0.681849
)
;
    }
}


// ************************************************************************* //
