/*--------------------------------*- C++ -*----------------------------------*\
  =========                 |
  \\      /  F ield         | OpenFOAM: The Open Source CFD Toolbox
   \\    /   O peration     | Website:  https://openfoam.org
    \\  /    A nd           | Version:  6
     \\/     M anipulation  |
\*---------------------------------------------------------------------------*/
FoamFile
{
    version     2.0;
    format      ascii;
    class       surfaceScalarField;
    location    "2000";
    object      phi;
}
// * * * * * * * * * * * * * * * * * * * * * * * * * * * * * * * * * * * * * //

dimensions      [0 3 -1 0 0 0 0];

internalField   nonuniform List<scalar> 
1468
(
-9.66958e-07
9.95759e-07
-2.11431e-06
9.19773e-07
-2.66203e-06
5.90006e-07
-3.91988e-06
9.18814e-07
-4.76821e-06
8.98126e-07
-5.90825e-06
7.23484e-07
-6.35428e-06
5.08785e-07
-7.10086e-06
3.22313e-07
-7.23104e-06
2.1023e-07
-7.68379e-06
1.1089e-07
-7.55351e-06
5.2936e-08
-1.07018e-08
-7.76282e-06
-4.67241e-06
5.63578e-06
-5.86675e-06
2.06625e-06
-6.11673e-06
8.25872e-07
-5.68696e-06
4.38651e-07
-5.07512e-06
2.69092e-07
-4.54821e-06
1.40306e-07
-4.1029e-06
4.33305e-08
-3.81717e-06
-2.6202e-08
-3.55621e-06
-6.01887e-08
-3.41128e-06
-7.44651e-08
-3.27956e-06
-6.69404e-08
-5.66235e-08
-3.25095e-06
-1.23147e-06
6.82032e-06
-1.74413e-06
2.54442e-06
-1.48515e-06
5.55134e-07
-1.07014e-06
2.79701e-09
-6.32379e-07
-1.80472e-07
-2.56953e-07
-2.56358e-07
5.9306e-08
-2.84051e-07
2.95909e-07
-2.8295e-07
4.86559e-07
-2.57323e-07
6.15765e-07
-2.15368e-07
7.11247e-07
-1.6024e-07
-1.00085e-07
7.51936e-07
-1.84811e-06
8.59087e-06
-5.93852e-07
1.2503e-06
1.38778e-07
-1.92728e-07
6.65475e-07
-5.42404e-07
1.10287e-06
-6.29361e-07
1.46321e-06
-6.33757e-07
1.76593e-06
-5.97151e-07
2.00277e-06
-5.35122e-07
2.19196e-06
-4.52659e-07
2.32447e-06
-3.57608e-07
2.41633e-06
-2.5296e-07
-1.44466e-07
2.4576e-06
-1.13e-06
9.53869e-06
-4.0746e-08
9.54924e-08
8.58119e-07
-1.11961e-06
1.50295e-06
-1.2127e-06
2.00749e-06
-1.15169e-06
2.41175e-06
-1.06047e-06
2.74288e-06
-9.43663e-07
3.00206e-06
-8.13563e-07
3.2041e-06
-6.65437e-07
3.34616e-06
-5.13727e-07
3.44121e-06
-3.52351e-07
-1.94966e-07
3.48324e-06
-1.57543e-06
1.08691e-05
2.15314e-07
-1.78731e-06
1.3632e-06
-2.32747e-06
2.15376e-06
-2.03671e-06
2.74107e-06
-1.78056e-06
3.20904e-06
-1.55361e-06
3.57136e-06
-1.34226e-06
3.85983e-06
-1.12001e-06
4.06829e-06
-9.03636e-07
4.22393e-06
-6.78221e-07
4.31376e-06
-4.6471e-07
-2.44353e-07
4.36338e-06
-1.62428e-06
1.18445e-05
5.07853e-07
-4.07686e-06
1.91068e-06
-3.79374e-06
2.84063e-06
-3.02702e-06
3.52741e-06
-2.50534e-06
4.03969e-06
-2.11584e-06
4.44031e-06
-1.77135e-06
4.73173e-06
-1.45314e-06
4.95477e-06
-1.14409e-06
5.09833e-06
-8.5403e-07
5.19712e-06
-5.70368e-07
-3.01508e-07
5.23331e-06
-1.64505e-06
1.33087e-05
8.63633e-07
-6.6812e-06
2.55506e-06
-5.54098e-06
3.65381e-06
-4.17272e-06
4.42134e-06
-3.31371e-06
4.97527e-06
-2.70742e-06
5.38081e-06
-2.21139e-06
5.67371e-06
-1.77475e-06
5.88107e-06
-1.37767e-06
6.01957e-06
-1.01288e-06
6.10364e-06
-6.72055e-07
-3.48954e-07
6.14048e-06
-1.9789e-06
1.47355e-05
1.30605e-06
-1.00638e-05
3.37122e-06
-7.65275e-06
4.63687e-06
-5.47458e-06
5.46133e-06
-4.17137e-06
6.0202e-06
-3.29813e-06
6.40606e-06
-2.62566e-06
6.67241e-06
-2.06694e-06
6.85309e-06
-1.58114e-06
6.97015e-06
-1.14996e-06
7.03855e-06
-7.56858e-07
-3.90667e-07
7.06784e-06
-8.44153e-07
1.56591e-05
2.35644e-06
-1.32735e-05
4.56264e-06
-9.88116e-06
5.87612e-06
-6.80473e-06
6.67317e-06
-4.99073e-06
7.17727e-06
-3.82055e-06
7.50183e-06
-2.97071e-06
7.71558e-06
-2.29709e-06
7.85271e-06
-1.73617e-06
7.93854e-06
-1.25034e-06
7.98532e-06
-8.18508e-07
-4.19904e-07
8.00553e-06
2.64729e-06
1.31071e-05
4.74282e-06
-1.5332e-05
6.42933e-06
-1.15632e-05
7.47017e-06
-7.85289e-06
8.07388e-06
-5.60646e-06
8.43028e-06
-4.19066e-06
8.64689e-06
-3.20143e-06
8.78079e-06
-2.44506e-06
8.86203e-06
-1.83148e-06
8.90785e-06
-1.31075e-06
8.93041e-06
-8.5412e-07
-4.37952e-07
8.93878e-06
1.07668e-05
2.47438e-06
9.40661e-06
-1.38852e-05
9.25501e-06
-1.13741e-05
9.45236e-06
-8.03992e-06
9.62647e-06
-5.77611e-06
9.73812e-06
-4.30501e-06
9.80649e-06
-3.27238e-06
9.84423e-06
-2.48874e-06
9.86218e-06
-1.85591e-06
9.86513e-06
-1.32361e-06
9.86128e-06
-8.59183e-07
9.85696e-06
-4.40701e-07
-7.50037e-06
-4.25514e-08
-7.5195e-06
-8.46646e-08
-7.14972e-06
-1.11106e-07
-6.98929e-06
-1.69212e-07
-6.50056e-06
-2.51071e-07
-6.07043e-06
-3.79242e-07
-5.35789e-06
-5.23538e-07
-4.59864e-06
-6.4321e-07
-3.99701e-06
-4.75979e-07
-3.3809e-06
-5.27015e-07
-1.45861e-06
-1.78414e-06
-1.42123e-06
-3.22774e-06
-3.8837e-08
-3.2824e-06
-2.41699e-08
-3.34352e-06
-1.09599e-08
-3.47901e-06
-1.15573e-08
-3.66309e-06
-2.7945e-08
-3.94865e-06
-6.74757e-08
-4.3091e-06
-1.29497e-07
-4.69044e-06
-2.31389e-07
-4.71368e-06
-4.24225e-07
-4.21899e-06
-9.9105e-07
-3.32615e-06
-2.61825e-06
-4.73987e-06
7.58621e-07
-3.64547e-08
7.15592e-07
2.49403e-08
6.36994e-07
8.20977e-08
5.08304e-07
1.2897e-07
3.34565e-07
1.62496e-07
1.05219e-07
1.76253e-07
-1.71237e-07
1.62598e-07
-4.83494e-07
9.55353e-08
-8.00997e-07
-9.48613e-08
-1.14958e-06
-6.26471e-07
-1.56769e-06
-2.1944e-06
-6.32392e-06
2.4595e-06
-3.43672e-08
2.41317e-06
7.392e-08
2.32549e-06
1.78027e-07
2.18824e-06
2.74176e-07
2.00337e-06
3.58524e-07
1.76568e-06
4.24825e-07
1.47595e-06
4.63917e-07
1.12686e-06
4.53542e-07
7.01339e-07
3.38478e-07
1.27058e-07
-5.87419e-08
-5.65366e-07
-1.53134e-06
-6.85633e-06
3.48271e-06
-3.21524e-08
3.43097e-06
1.23865e-07
3.33383e-06
2.82188e-07
3.18176e-06
4.32353e-07
2.97388e-06
5.78151e-07
2.70069e-06
7.09826e-07
2.3533e-06
8.22732e-07
1.91236e-06
9.0395e-07
1.32858e-06
9.26364e-07
4.73982e-07
7.95639e-07
-7.60701e-07
-2.27885e-07
-7.58982e-06
4.35384e-06
-3.57847e-08
4.30522e-06
1.80912e-07
4.19671e-06
3.90463e-07
4.03758e-06
6.07793e-07
3.80748e-06
8.21095e-07
3.50115e-06
1.03645e-06
3.09659e-06
1.2453e-06
2.56573e-06
1.45354e-06
1.8444e-06
1.67805e-06
7.62343e-07
1.92411e-06
-9.91499e-07
1.55349e-06
-8.41826e-06
5.23331e-06
-3.2229e-08
5.17583e-06
2.3193e-07
5.07546e-06
5.05809e-07
4.90932e-06
7.84403e-07
4.67659e-06
1.07936e-06
4.35015e-06
1.38496e-06
3.9126e-06
1.71244e-06
3.32732e-06
2.07478e-06
2.50714e-06
2.51722e-06
1.27685e-06
3.17889e-06
-6.59032e-07
3.67193e-06
-9.07225e-06
6.13504e-06
-3.393e-08
6.08733e-06
2.82342e-07
5.99112e-06
6.07814e-07
5.84021e-06
9.53114e-07
5.61412e-06
1.32255e-06
5.29675e-06
1.72862e-06
4.85278e-06
2.17841e-06
4.23669e-06
2.70685e-06
3.37831e-06
3.41226e-06
2.09306e-06
4.50102e-06
1.55937e-07
5.58834e-06
-8.74089e-06
7.06372e-06
-3.55176e-08
7.02423e-06
3.21086e-07
6.94612e-06
6.93901e-07
6.81655e-06
1.09421e-06
6.62113e-06
1.53538e-06
6.33247e-06
2.03276e-06
5.91848e-06
2.60962e-06
5.33109e-06
3.31668e-06
4.46954e-06
4.26576e-06
3.18155e-06
5.79088e-06
1.31114e-06
7.58571e-06
-7.55989e-06
8.0026e-06
-3.77432e-08
7.9762e-06
3.4878e-07
7.9209e-06
7.56612e-07
7.825e-06
1.19981e-06
7.67486e-06
1.69853e-06
7.44406e-06
2.27278e-06
7.1004e-06
2.96095e-06
6.58386e-06
3.82987e-06
5.82267e-06
5.04512e-06
4.664e-06
6.94652e-06
3.1496e-06
8.99791e-06
-4.41329e-06
8.93858e-06
-4.21859e-08
8.92741e-06
3.61436e-07
8.89854e-06
7.9082e-07
8.84429e-06
1.26271e-06
8.75142e-06
1.79803e-06
8.60307e-06
2.42515e-06
8.37155e-06
3.19319e-06
8.01515e-06
4.18842e-06
7.46068e-06
5.57385e-06
6.68772e-06
7.70298e-06
5.47045e-06
1.01896e-05
8.23603e-07
9.86077e-06
-4.82559e-08
9.86567e-06
3.58931e-07
9.865e-06
7.95985e-07
9.85403e-06
1.27952e-06
9.82547e-06
1.82783e-06
9.77486e-06
2.47408e-06
9.69223e-06
3.2674e-06
9.5613e-06
4.30418e-06
9.36349e-06
5.76681e-06
9.08009e-06
7.94657e-06
8.37133e-06
1.07644e-05
9.22504e-06
1.72474e-05
-2.75333e-06
1.42638e-05
-1.08231e-05
1.23427e-05
-9.41436e-06
1.1515e-05
-7.19426e-06
1.1176e-05
-5.42945e-06
1.10204e-05
-4.14745e-06
1.09357e-05
-3.18862e-06
1.088e-05
-2.43628e-06
1.08362e-05
-1.81835e-06
1.07985e-05
-1.29475e-06
1.07683e-05
-8.3796e-07
-4.30575e-07
1.07507e-05
1.97157e-05
-2.24048e-06
1.63788e-05
-7.41197e-06
1.42517e-05
-7.24053e-06
1.31125e-05
-6.02385e-06
1.25189e-05
-4.81813e-06
1.21936e-05
-3.8089e-06
1.19979e-05
-2.98533e-06
1.18687e-05
-2.30182e-06
1.17739e-05
-1.72334e-06
1.17009e-05
-1.22439e-06
1.16455e-05
-7.88768e-07
-4.02107e-07
1.16131e-05
1.93239e-05
-1.5199e-06
1.70645e-05
-5.09418e-06
1.53567e-05
-5.489e-06
1.42836e-05
-4.92164e-06
1.36359e-05
-4.15138e-06
1.32376e-05
-3.39805e-06
1.29802e-05
-2.71976e-06
1.28026e-05
-2.11965e-06
1.26706e-05
-1.59084e-06
1.25677e-05
-1.12562e-06
1.24889e-05
-7.14589e-07
-3.52161e-07
1.24365e-05
1.87948e-05
-1.0471e-06
1.73395e-05
-3.5883e-06
1.60754e-05
-4.17982e-06
1.51748e-05
-3.98826e-06
1.45692e-05
-3.52006e-06
1.41627e-05
-2.97324e-06
1.38833e-05
-2.42522e-06
1.36808e-05
-1.90676e-06
1.35243e-05
-1.42816e-06
1.33972e-05
-9.96709e-07
1.32916e-05
-6.09238e-07
1.32059e-05
-2.71948e-07
1.07608e-05
-6.11981e-08
1.0782e-05
3.38079e-07
1.08086e-05
7.72682e-07
1.08375e-05
1.2522e-06
1.08706e-05
1.79358e-06
1.09146e-05
2.423e-06
1.09895e-05
3.18183e-06
1.11395e-05
4.14032e-06
1.14612e-05
5.41792e-06
1.21613e-05
7.20709e-06
1.35222e-05
9.38294e-06
1.11879e-05
1.16335e-05
-8.26889e-08
1.16718e-05
3.01129e-07
1.17222e-05
7.24138e-07
1.17848e-05
1.18821e-06
1.18664e-05
1.70688e-06
1.19823e-05
2.29602e-06
1.21666e-05
2.98203e-06
1.2487e-05
3.80043e-06
1.30815e-05
4.80212e-06
1.42272e-05
6.03256e-06
1.62717e-05
7.28989e-06
7.39188e-06
1.24764e-05
-1.27311e-07
1.25333e-05
2.42577e-07
1.26041e-05
6.5156e-07
1.26932e-05
1.09607e-06
1.28084e-05
1.58391e-06
1.29695e-05
2.12338e-06
1.32114e-05
2.72383e-06
1.35997e-05
3.39385e-06
1.42521e-05
4.1303e-06
1.537e-05
4.88422e-06
1.72273e-05
5.41675e-06
4.62707e-06
1.32861e-05
-2.08364e-07
1.33682e-05
1.59301e-07
1.34593e-05
5.58177e-07
1.35683e-05
9.82203e-07
1.37056e-05
1.43751e-06
1.38907e-05
1.9252e-06
1.41557e-05
2.44263e-06
1.45524e-05
2.98001e-06
1.51617e-05
3.50151e-06
1.61106e-05
3.92536e-06
1.75286e-05
3.98471e-06
2.91643e-06
2.99893e-06
-7.04396e-07
2.02805e-06
-2.57517e-06
1.11012e-06
-3.22409e-06
3.99489e-07
-3.24776e-06
-1.18002e-07
-2.98025e-06
-4.89463e-07
-2.58494e-06
-7.60148e-07
-2.14186e-06
-9.66413e-07
-1.69138e-06
-1.1358e-06
-1.25392e-06
-1.28582e-06
-8.45853e-07
-1.43097e-06
-4.65496e-07
-1.27204e-07
-1.56794e-06
2.31881e-06
-4.69599e-07
1.66888e-06
-1.88892e-06
9.97915e-07
-2.51902e-06
4.3528e-07
-2.65535e-06
-4.08466e-09
-2.5174e-06
-3.37998e-07
-2.23123e-06
-5.93546e-07
-1.87061e-06
-7.97283e-07
-1.47481e-06
-9.76077e-07
-1.06673e-06
-1.15587e-06
-6.61043e-07
-1.37375e-06
-2.39145e-07
1.14952e-07
-1.62784e-06
1.83515e-06
-3.1627e-07
1.39155e-06
-1.41665e-06
8.94101e-07
-1.99248e-06
4.46139e-07
-2.18241e-06
7.56815e-08
-2.12618e-06
-2.1975e-07
-1.91911e-06
-4.54357e-07
-1.62247e-06
-6.4801e-07
-1.27065e-06
-8.27101e-07
-8.807e-07
-1.03305e-06
-4.50211e-07
-1.37154e-06
9.72678e-08
5.53037e-07
-1.79253e-06
1.48337e-06
-2.13869e-07
1.17299e-06
-1.08273e-06
7.98214e-07
-1.59304e-06
4.39765e-07
-1.80192e-06
1.28869e-07
-1.79579e-06
-1.28635e-07
-1.64539e-06
-3.38222e-07
-1.39866e-06
-5.12849e-07
-1.0846e-06
-6.73273e-07
-7.11886e-07
-8.6483e-07
-2.54177e-07
-1.24962e-06
4.92498e-07
-1.74502e-06
1.03225e-06
-1.41013e-06
-3.7785e-07
-1.28403e-06
2.59641e-08
-1.16884e-06
4.38041e-07
-1.04294e-06
8.49217e-07
-8.89974e-07
1.27521e-06
-6.90513e-07
1.71245e-06
-4.16141e-07
2.15329e-06
-2.90046e-08
2.57643e-06
5.24167e-07
2.93795e-06
1.29574e-06
3.13232e-06
2.31368e-06
2.96679e-06
1.90969e-06
-1.33652e-06
-6.68458e-07
-1.13847e-06
-1.76634e-07
-9.97645e-07
2.92803e-07
-8.62185e-07
7.0776e-07
-7.0646e-07
1.11071e-06
-5.09182e-07
1.50427e-06
-2.47731e-07
1.87926e-06
1.05376e-07
2.21222e-06
5.76623e-07
2.45392e-06
1.19052e-06
2.52289e-06
1.91742e-06
2.23792e-06
1.28975e-06
-1.30993e-06
-1.1762e-06
-1.00454e-06
-4.9021e-07
-8.43943e-07
1.25477e-07
-7.08587e-07
5.65252e-07
-5.59039e-07
9.51427e-07
-3.73296e-07
1.30761e-06
-1.33795e-07
1.62734e-06
1.7712e-07
1.8898e-06
5.7423e-07
2.05119e-06
1.05351e-06
2.02929e-06
1.5805e-06
1.71765e-06
9.03023e-07
-1.15933e-06
-1.75651e-06
-8.28597e-07
-8.25397e-07
-6.89963e-07
-1.64497e-08
-5.71933e-07
4.42393e-07
-4.36682e-07
8.10391e-07
-2.68128e-07
1.1319e-06
-5.37636e-08
1.40629e-06
2.16128e-07
1.6145e-06
5.44758e-07
1.71687e-06
9.25462e-07
1.65887e-06
1.31097e-06
1.33419e-06
6.45131e-07
1.2213e-06
-1.46481e-07
9.98694e-07
-8.41121e-07
7.12044e-07
-1.28587e-06
4.23785e-07
-1.4943e-06
1.63498e-07
-1.51876e-06
-5.82251e-08
-1.409e-06
-2.41173e-07
-1.20378e-06
-3.89728e-07
-9.2614e-07
-5.09089e-07
-5.86176e-07
-5.9444e-07
-1.64328e-07
-6.48935e-07
5.44131e-07
3.9687e-07
1.02259e-06
-9.84204e-08
8.58804e-07
-6.62234e-07
6.36453e-07
-1.04742e-06
4.03148e-07
-1.24582e-06
1.85562e-07
-1.2873e-06
-4.10088e-09
-1.20742e-06
-1.61394e-07
-1.03584e-06
-2.85143e-07
-7.93928e-07
-3.71561e-07
-4.93464e-07
-3.97379e-07
-1.36313e-07
-2.29566e-07
3.80458e-07
1.48154e-07
8.69063e-07
-6.51742e-08
7.45744e-07
-5.26756e-07
5.7104e-07
-8.59132e-07
3.81177e-07
-1.04188e-06
1.99044e-07
-1.09294e-06
3.75333e-08
-1.03419e-06
-9.71752e-08
-8.92117e-07
-2.00257e-07
-6.8271e-07
-2.66505e-07
-4.22802e-07
-2.78158e-07
-1.22189e-07
-1.65076e-07
2.62245e-07
-1.48815e-08
7.4914e-07
-3.92408e-08
6.5409e-07
-4.23e-07
5.15252e-07
-7.10404e-07
3.59482e-07
-8.77097e-07
2.06912e-07
-9.31426e-07
6.90978e-08
-8.89174e-07
-4.59836e-08
-7.70012e-07
-1.32921e-07
-5.90709e-07
-1.85439e-07
-3.66438e-07
-1.919e-07
-1.15008e-07
-1.09238e-07
1.79465e-07
-1.4166e-07
6.54541e-07
-2.18212e-08
5.80032e-07
-3.40988e-07
4.68187e-07
-5.91065e-07
3.3974e-07
-7.38875e-07
2.11056e-07
-7.95564e-07
9.34229e-08
-7.6286e-07
-5.67805e-09
-6.65572e-07
-7.97044e-08
-5.10696e-07
-1.23136e-07
-3.20691e-07
-1.27009e-07
-1.09881e-07
-6.57002e-08
1.13635e-07
-2.11475e-07
5.82831e-07
-6.60087e-09
5.22762e-07
-2.76716e-07
4.31519e-07
-4.94922e-07
3.23659e-07
-6.26553e-07
2.14488e-07
-6.82128e-07
1.12306e-07
-6.5699e-07
2.65294e-08
-5.76715e-07
-3.8454e-08
-4.42991e-07
-7.54587e-08
-2.82335e-07
-7.97225e-08
-1.05315e-07
-3.27421e-08
6.54772e-08
-2.54377e-07
5.37071e-07
4.31593e-09
4.87241e-07
-2.24146e-07
4.10102e-07
-4.13103e-07
3.16842e-07
-5.29817e-07
2.21423e-07
-5.8151e-07
1.29799e-07
-5.63131e-07
5.34157e-08
-4.95897e-07
-6.36394e-09
-3.82845e-07
-3.94335e-08
-2.46775e-07
-4.60604e-08
-1.00672e-07
-1.05913e-08
2.73294e-08
-2.76165e-07
5.31813e-07
1.45252e-08
4.87613e-07
-1.77612e-07
4.17071e-07
-3.41883e-07
3.30837e-07
-4.4058e-07
2.40956e-07
-4.92114e-07
1.53104e-07
-4.72608e-07
7.9642e-08
-4.24089e-07
2.04917e-08
-3.21769e-07
-1.22579e-08
-2.16109e-07
-2.25675e-08
-9.00628e-08
5.26217e-09
-3.53518e-09
-2.76158e-07
5.98513e-07
2.94597e-08
5.52562e-07
-1.36579e-07
4.8067e-07
-2.58538e-07
3.87481e-07
-3.56866e-07
2.93655e-07
-3.82538e-07
1.94681e-07
-3.88409e-07
1.17303e-07
-3.29105e-07
4.72755e-08
-2.69661e-07
1.27174e-08
-1.66313e-07
-6.45924e-09
-8.72282e-08
1.90969e-08
-2.50727e-08
-2.81479e-07
7.92236e-07
4.31301e-08
7.379e-07
-8.05038e-08
6.47677e-07
-1.65443e-07
5.33633e-07
-2.42255e-07
4.11366e-07
-2.58451e-07
2.87024e-07
-2.66928e-07
1.82144e-07
-2.24023e-07
9.32352e-08
-1.87726e-07
4.17156e-08
-1.15498e-07
1.29568e-08
-6.93106e-08
3.01394e-08
-4.9439e-08
-2.68338e-07
1.1404e-06
6.49314e-08
1.06795e-06
-5.06349e-09
9.52498e-07
-4.07341e-08
8.01384e-07
-9.34987e-08
6.35421e-07
-8.63127e-08
4.62591e-07
-1.06963e-07
3.14075e-07
-7.56702e-08
1.88146e-07
-8.48339e-08
1.10282e-07
-4.31304e-08
6.23316e-08
-5.21247e-08
6.44516e-08
-6.91988e-08
-2.38839e-07
9.18421e-07
9.15714e-07
8.74171e-07
7.82479e-07
6.92866e-07
5.86396e-07
5.05007e-07
4.19446e-07
3.69126e-07
3.13522e-07
2.38839e-07
-5.41686e-07
-1.26064e-06
-5.69783e-07
-8.04185e-07
-5.31577e-07
-5.99672e-08
-4.49085e-07
3.53329e-07
-3.34154e-07
6.87854e-07
-1.85013e-07
9.73992e-07
3.80273e-09
1.20938e-06
2.35479e-07
1.37487e-06
5.09832e-07
1.44039e-06
8.08549e-07
1.34902e-06
1.09799e-06
1.05488e-06
4.76925e-07
-1.81667e-07
-1.07036e-06
-3.94057e-07
-5.93698e-07
-4.02747e-07
-5.30971e-08
-3.45442e-07
2.94204e-07
-2.49466e-07
5.88898e-07
-1.19041e-07
8.41562e-07
4.5525e-08
1.04257e-06
2.44308e-07
1.17656e-06
4.70577e-07
1.21282e-06
7.11727e-07
1.12097e-06
9.29904e-07
8.39652e-07
3.54476e-07
-1.58948e-07
-9.52324e-07
-2.93256e-07
-4.62978e-07
-3.0517e-07
-4.52569e-08
-2.61486e-07
2.45911e-07
-1.80299e-07
5.01885e-07
-6.69164e-08
7.22617e-07
7.63248e-08
8.94483e-07
2.45809e-07
1.00285e-06
4.35535e-07
1.02312e-06
6.26792e-07
9.21412e-07
7.9644e-07
6.80462e-07
2.73469e-07
-1.2549e-07
-8.01678e-07
-2.2027e-07
-3.68205e-07
-2.29999e-07
-3.46782e-08
-1.94351e-07
2.09862e-07
-1.24481e-07
4.32966e-07
-2.56643e-08
6.24488e-07
9.88859e-08
7.72419e-07
2.44049e-07
8.60731e-07
4.01462e-07
8.68227e-07
5.58444e-07
7.76154e-07
6.90169e-07
5.52694e-07
2.08896e-07
-9.66206e-08
-7.30343e-07
-1.64827e-07
-3.01086e-07
-1.71848e-07
-3.1356e-08
-1.40462e-07
1.7651e-07
-7.98686e-08
3.68043e-07
7.32877e-09
5.3546e-07
1.15494e-07
6.61735e-07
2.40447e-07
7.35264e-07
3.72807e-07
7.35958e-07
4.99899e-07
6.44321e-07
6.05533e-07
4.565e-07
1.66652e-07
-7.39467e-08
-6.27402e-07
-1.24069e-07
-2.49618e-07
-1.27069e-07
-2.6197e-08
-9.80934e-08
1.48509e-07
-4.41567e-08
3.17411e-07
3.38964e-08
4.59984e-07
1.2861e-07
5.72514e-07
2.37864e-07
6.29847e-07
3.48567e-07
6.29971e-07
4.56201e-07
5.44553e-07
5.4107e-07
3.76902e-07
1.306e-07
-6.22561e-08
-5.74802e-07
-9.49558e-08
-2.15152e-07
-9.46623e-08
-2.96141e-08
-6.4834e-08
1.20781e-07
-1.65891e-08
2.65661e-07
5.73978e-08
3.9046e-07
1.4057e-07
4.86315e-07
2.41224e-07
5.36392e-07
3.34551e-07
5.32781e-07
4.2923e-07
4.54914e-07
5.00426e-07
3.14323e-07
1.0726e-07
-5.76164e-08
-4.83999e-07
-7.79109e-08
-1.92337e-07
-7.37288e-08
-3.02094e-08
-4.10881e-08
8.95373e-08
5.53849e-09
2.25099e-07
8.03007e-08
3.18431e-07
1.58667e-07
4.18086e-07
2.57745e-07
4.40557e-07
3.41373e-07
4.58278e-07
4.32814e-07
3.68918e-07
4.96885e-07
2.6086e-07
8.80992e-08
-6.4909e-08
-4.33481e-07
-7.29751e-08
-1.70507e-07
-6.78083e-08
-5.17371e-08
-2.47603e-08
6.81285e-08
2.16896e-08
1.54399e-07
1.12283e-07
2.61921e-07
1.89313e-07
3.06716e-07
3.07302e-07
3.69533e-07
3.8494e-07
3.37046e-07
4.92074e-07
3.12745e-07
5.57168e-07
2.03704e-07
6.86347e-08
-7.9923e-08
-3.11975e-07
-8.99192e-08
-1.52188e-07
-7.75883e-08
-6.32879e-08
-2.61683e-08
2.65832e-08
4.05788e-08
9.05603e-08
1.50387e-07
1.68436e-07
2.58506e-07
2.04783e-07
4.00263e-07
2.53011e-07
5.08235e-07
2.30009e-07
6.40457e-07
2.36375e-07
7.28062e-07
1.63983e-07
5.44298e-08
-1.08991e-07
-1.22203e-07
-1.35503e-07
-9.55293e-08
-1.24628e-07
-6.51425e-08
-6.08227e-08
-1.45323e-09
3.24871e-08
1.33536e-08
1.79349e-07
8.02305e-08
3.34591e-07
7.87337e-08
5.26278e-07
1.42603e-07
6.86927e-07
1.01812e-07
8.78652e-07
2.1747e-07
1.01364e-06
1.76876e-07
7.78112e-08
-1.10725e-07
-2.0479e-07
-2.60995e-07
-2.59784e-07
-2.32035e-07
-1.46537e-07
-4.75968e-08
9.99941e-08
2.41232e-07
4.93546e-07
6.88255e-07
)
;

boundaryField
{
    rotor
    {
        type            calculated;
        value           uniform 0;
    }
    stator
    {
        type            calculated;
        value           uniform 0;
    }
    front
    {
        type            empty;
        value           nonuniform 0();
    }
    back
    {
        type            empty;
        value           nonuniform 0();
    }
    procBoundary1to0
    {
        type            processor;
        value           nonuniform List<scalar> 
20
(
1.15027e-05
2.00995e-05
2.00002e-05
1.92546e-05
3.33665e-06
2.54936e-06
1.98531e-06
1.57889e-06
1.28292e-06
1.06151e-06
8.9388e-07
7.63449e-07
6.62318e-07
5.85117e-07
5.35809e-07
5.26497e-07
5.856e-07
7.61956e-07
1.0678e-06
7.81244e-07
)
;
    }
    procBoundary1to3
    {
        type            processor;
        value           nonuniform List<scalar> 
20
(
-1.19451e-05
-2.01859e-05
-2.00011e-05
-1.92338e-05
-3.31523e-06
-2.53095e-06
-1.97103e-06
-1.56939e-06
-1.27758e-06
-1.06019e-06
-8.95643e-07
-7.6824e-07
-6.69502e-07
-5.94431e-07
-5.47336e-07
-5.41446e-07
-6.07868e-07
-8.03751e-07
-1.15104e-06
-8.5113e-07
)
;
    }
}


// ************************************************************************* //
