/*--------------------------------*- C++ -*----------------------------------*\
  =========                 |
  \\      /  F ield         | OpenFOAM: The Open Source CFD Toolbox
   \\    /   O peration     | Website:  https://openfoam.org
    \\  /    A nd           | Version:  6
     \\/     M anipulation  |
\*---------------------------------------------------------------------------*/
FoamFile
{
    version     2.0;
    format      ascii;
    class       volScalarField;
    location    "1500";
    object      epsilon;
}
// * * * * * * * * * * * * * * * * * * * * * * * * * * * * * * * * * * * * * //

dimensions      [0 2 -3 0 0 0 0];

internalField   nonuniform List<scalar> 
768
(
264.322
193.834
202.791
207.51
206.097
208.523
205.916
210.641
216.347
217.523
215.613
216.778
260.277
105.975
80.7469
69.1754
63.6824
61.2935
59.9955
59.5686
59.4298
59.298
59.117
59.0874
231.499
88.5508
50.8157
35.6771
30.0284
28.0183
27.309
27.0771
27.0044
26.9917
26.9853
26.9877
211.751
82.097
43.2539
28.4491
23.3131
21.6252
21.0987
20.9404
20.8945
20.8888
20.8892
20.8913
200.441
78.317
40.2002
26.2528
21.6444
20.2026
19.7773
19.6594
19.628
19.6223
19.6183
19.6172
185.424
74.4123
38.1054
25.1514
21.0344
19.7949
19.4478
19.353
19.3345
19.3275
19.3223
19.3163
177.173
71.4393
36.4583
24.3853
20.6835
19.6163
19.3207
19.2506
19.2346
19.2321
19.2189
19.215
167.391
69.0488
35.1742
23.7919
20.4312
19.4942
19.2451
19.1888
19.1798
19.1689
19.1575
19.1551
165.379
67.6676
34.2742
23.3533
20.2366
19.3978
19.1809
19.136
19.1305
19.1157
19.1061
19.1069
157.454
66.9621
33.7059
23.0269
20.0849
19.3167
19.122
19.0845
19.0823
19.07
19.0634
19.0596
152.157
68.6402
33.2409
22.7016
19.9399
19.2412
19.0675
19.037
19.0323
19.0254
19.0285
19.0274
179.806
68.5539
31.2334
22.0209
19.7201
19.1529
19.0133
18.9942
18.9997
18.9983
18.9931
18.9897
217.644
222.134
213.089
207.503
216.887
223.189
222.613
220.999
213.487
200.955
182.891
261.559
59.0986
59.2703
58.9188
58.7676
59.1276
59.4848
59.5947
60.6269
65.6253
80.1029
117.034
259.801
27.0032
27.03
27.0137
27.0071
27.0349
27.0716
27.2304
28.3577
33.2253
48.1924
87.8917
231.683
20.8946
20.9005
20.8986
20.8998
20.9057
20.9233
21.0442
21.9207
25.9023
39.2154
76.5315
206.443
19.6164
19.6173
19.6161
19.6176
19.6189
19.6291
19.7203
20.3987
23.7144
35.6263
70.7497
196.024
19.3195
19.3165
19.3135
19.3102
19.3121
19.3194
19.3907
19.917
22.7052
33.3192
66.2336
184.094
19.2131
19.2173
19.213
19.2124
19.2101
19.2181
19.2699
19.6871
22.028
31.5024
62.0377
176.023
19.1541
19.1558
19.1521
19.1476
19.1496
19.1566
19.2046
19.5368
21.5004
30.0286
59.4459
171.858
19.1072
19.1095
19.1063
19.1036
19.1024
19.1095
19.1499
19.4176
21.0755
28.6938
56.4015
169.644
19.0541
19.0552
19.0607
19.0641
19.0609
19.0654
19.1024
19.3219
20.7014
27.4746
54.0889
166.617
19.0208
19.0218
19.0145
19.01
19.0154
19.0249
19.0578
19.2344
20.3833
26.2703
51.4679
166.335
18.9787
18.9752
18.9739
18.974
18.9871
18.9913
19.0148
19.1503
20.0223
24.8869
49.4135
173.154
65.3517
39.1301
25.4293
20.7454
19.4082
19.0532
18.9634
18.9536
18.9546
18.9558
18.955
18.9475
34.1139
26.4355
21.7028
19.7711
19.1452
18.963
18.9152
18.9124
18.916
18.9181
18.9218
18.9222
23.6358
21.5343
19.9565
19.2403
18.9809
18.8998
18.8808
18.8798
18.8907
18.8902
18.8872
18.89
20.3219
19.7457
19.2323
18.9824
18.8808
18.8521
18.8484
18.8501
18.8609
18.8635
18.8684
18.916
18.9469
18.9403
18.9406
18.9518
18.9588
18.9639
18.9777
19.0572
19.5579
22.2986
35.3421
87.957
18.9205
18.907
18.907
18.9136
18.9226
18.9345
18.9431
18.9835
19.2124
20.3836
25.278
39.6744
18.8894
18.8747
18.872
18.8769
18.886
18.8968
18.9039
18.9224
19.022
19.4508
21.05
24.7807
18.9133
18.8488
18.8349
18.835
18.8347
18.8441
18.8678
18.8817
18.9143
19.06
19.5487
20.5598
19.2856
19.095
18.9348
18.8531
18.8174
18.8058
18.8014
18.8012
18.8048
18.815
18.9074
19.2814
18.9466
18.8701
18.8159
18.7879
18.7746
18.7697
18.7669
18.7671
18.7739
18.8405
19.405
21.1565
18.8235
18.7809
18.7595
18.749
18.7433
18.7409
18.7396
18.7407
18.765
19.0697
21.1676
27.1844
18.7683
18.7356
18.7246
18.7202
18.7176
18.7162
18.7156
18.7196
18.7944
19.6228
25.0834
44.803
19.3412
18.9721
18.8308
18.8011
18.7985
18.8046
18.8134
18.8176
18.8334
18.8879
19.0479
19.3272
21.3139
19.5706
18.9262
18.7923
18.7716
18.7721
18.7751
18.7776
18.7844
18.8047
18.8552
18.9346
27.6791
21.3592
19.2296
18.8143
18.7506
18.7438
18.7446
18.7467
18.7494
18.7565
18.7729
18.7989
46.7863
25.1436
19.7931
18.8682
18.7363
18.7204
18.7198
18.7206
18.7219
18.724
18.7293
18.7408
18.7355
18.7058
18.6983
18.6966
18.6956
18.6947
18.6943
18.7027
18.8416
20.2955
31.4476
114.684
18.7107
18.6829
18.677
18.6762
18.6756
18.6747
18.6744
18.6846
18.8473
20.496
32.4655
97.8731
18.6904
18.6634
18.6583
18.6578
18.6576
18.6568
18.6567
18.6666
18.824
20.4316
32.0683
94.0618
18.6719
18.6461
18.6416
18.6409
18.6411
18.6405
18.6404
18.6488
18.7896
20.2738
31.302
91.9391
18.6561
18.6302
18.6263
18.6254
18.626
18.6257
18.6254
18.6325
18.7543
20.0992
30.4947
89.8162
18.6609
18.6414
18.6385
18.6382
18.6387
18.6384
18.638
18.6435
18.7482
19.9621
29.7544
88.0258
18.8382
18.8346
18.8348
18.8352
18.8357
18.8357
18.8351
18.8395
18.9301
20.0337
29.2542
86.2887
19.9209
19.9807
19.9914
19.9946
19.9957
19.996
19.9945
19.9967
20.0765
21.0932
29.6892
84.7098
23.7835
23.8802
23.9025
23.9126
23.9131
23.9158
23.9103
23.9083
23.9755
24.892
32.4843
82.7063
33.0149
33.0164
33.0459
33.0391
33.037
33.0369
33.0139
33.0054
33.0384
33.6602
38.9315
77.8057
53.5196
53.4707
53.4783
53.3953
53.3351
53.3471
53.2446
53.218
53.1862
53.3318
54.6603
65.9326
122.105
121.923
121.649
121.007
120.695
120.699
120.373
120.099
119.899
119.73
117.946
104.464
114.578
30.9722
20.437
18.9248
18.7229
18.6992
18.6973
18.6975
18.6984
18.6986
18.7002
18.7075
98.6193
32.0727
20.6371
18.9339
18.7063
18.6799
18.6774
18.6777
18.6778
18.6771
18.6773
18.6832
94.5613
31.7641
20.579
18.9078
18.6867
18.6613
18.6589
18.6594
18.6592
18.6581
18.6579
18.663
91.9731
31.0852
20.4236
18.867
18.6667
18.6442
18.6419
18.6427
18.6424
18.6416
18.6408
18.6452
90.0012
30.3517
20.2473
18.8238
18.6472
18.6281
18.6262
18.6269
18.627
18.6255
18.6251
18.6293
88.1566
29.6588
20.1041
18.8092
18.6551
18.6392
18.6375
18.6383
18.6378
18.637
18.6362
18.6405
86.4651
29.1732
20.1629
18.9824
18.8468
18.8334
18.8318
18.8323
18.8314
18.8307
18.8308
18.833
84.875
29.5623
21.1929
20.1142
19.9916
19.9786
19.9754
19.9753
19.974
19.9747
19.9754
19.9754
83.0271
32.3444
24.9485
23.9859
23.8726
23.8586
23.8513
23.8499
23.8474
23.8521
23.8552
23.8476
78.2251
38.9193
33.6775
33.0028
32.9124
32.8977
32.8923
32.8855
32.8959
32.8962
32.8941
32.9085
66.3344
54.6352
53.2761
53.0788
53.0209
53.0223
53.0548
53.0582
53.0824
53.0864
53.0637
53.1621
104.99
118.134
119.747
119.857
119.949
120.106
120.49
120.64
120.702
120.834
120.923
121.03
)
;

boundaryField
{
    rotor
    {
        Cmu             0.09;
        kappa           0.41;
        E               9.8;
        type            epsilonWallFunction;
        value           nonuniform List<scalar> 
48
(
264.322
193.834
202.791
207.51
206.097
208.523
205.916
210.641
216.347
217.523
215.613
216.778
217.644
222.134
213.089
207.503
216.887
223.189
222.613
220.999
213.487
200.955
182.891
261.559
264.322
260.277
231.499
211.751
200.441
185.424
177.173
167.391
165.379
157.454
152.157
179.806
261.559
259.801
231.683
206.443
196.024
184.094
176.023
171.858
169.644
166.617
166.335
173.154
)
;
    }
    stator
    {
        Cmu             0.09;
        kappa           0.41;
        E               9.8;
        type            epsilonWallFunction;
        value           nonuniform List<scalar> 
48
(
122.105
121.923
121.649
121.007
120.695
120.699
120.373
120.099
119.899
119.73
117.946
104.464
104.99
118.134
119.747
119.857
119.949
120.106
120.49
120.64
120.702
120.834
120.923
121.03
114.578
98.6193
94.5613
91.9731
90.0012
88.1566
86.4651
84.875
83.0271
78.2251
66.3344
104.99
114.684
97.8731
94.0618
91.9391
89.8162
88.0258
86.2887
84.7098
82.7063
77.8057
65.9326
104.464
)
;
    }
    front
    {
        type            empty;
    }
    back
    {
        type            empty;
    }
    procBoundary2to0
    {
        type            processor;
        value           nonuniform List<scalar> 
20
(
88.2617
39.7099
24.7663
20.5506
19.324
18.9352
18.8006
18.7431
18.7092
18.6852
18.6645
18.6471
18.6306
18.6425
18.8344
19.9771
23.8494
32.9171
53.207
120.993
)
;
    }
    procBoundary2to3
    {
        type            processor;
        value           nonuniform List<scalar> 
20
(
65.4994
34.1394
23.6592
20.333
19.2899
18.9472
18.8227
18.7673
18.7341
18.7092
18.6887
18.6704
18.654
18.6595
18.8366
19.92
23.7822
32.9997
53.4516
122.024
)
;
    }
}


// ************************************************************************* //
