/*--------------------------------*- C++ -*----------------------------------*\
  =========                 |
  \\      /  F ield         | OpenFOAM: The Open Source CFD Toolbox
   \\    /   O peration     | Website:  https://openfoam.org
    \\  /    A nd           | Version:  6
     \\/     M anipulation  |
\*---------------------------------------------------------------------------*/
FoamFile
{
    version     2.0;
    format      ascii;
    class       volScalarField;
    location    "1500";
    object      nut;
}
// * * * * * * * * * * * * * * * * * * * * * * * * * * * * * * * * * * * * * //

dimensions      [0 2 -1 0 0 0 0];

internalField   nonuniform List<scalar> 
768
(
5.74394e-05
0.000147995
0.000165046
0.000180643
0.000181393
0.000185167
0.000176062
0.000177075
0.000181174
0.000187032
0.000175263
0.000172278
7.90552e-05
0.00050754
0.000907289
0.00115862
0.00129039
0.00135605
0.00138756
0.00140302
0.00140849
0.00141451
0.00141412
0.00141491
9.02783e-05
0.000678857
0.00156487
0.00238006
0.0028789
0.00310354
0.00318957
0.00321964
0.00322881
0.00323058
0.00323011
0.00322971
9.91424e-05
0.000756729
0.00187169
0.00301049
0.00372986
0.00404035
0.00414695
0.00418034
0.00418967
0.00419111
0.0041908
0.0041903
0.000108416
0.000813106
0.00203311
0.00327131
0.00402026
0.0043247
0.00442267
0.0044507
0.00445767
0.00445897
0.00445919
0.0044592
0.000118619
0.00087529
0.00216266
0.00342023
0.00413557
0.00440796
0.00449064
0.00451252
0.0045171
0.00451812
0.00451985
0.00452055
0.000128549
0.000942208
0.00228266
0.00353562
0.00420321
0.00444255
0.00451181
0.00452874
0.00453128
0.00453235
0.004534
0.00453451
0.000134938
0.00100559
0.00239386
0.00363277
0.00425394
0.00446431
0.00452256
0.0045343
0.004535
0.00453746
0.00453986
0.00454
0.000149416
0.00106156
0.00248954
0.00371232
0.00429361
0.0044804
0.00453027
0.00453931
0.00453939
0.00454098
0.00454207
0.00454236
0.000153727
0.00107918
0.00255916
0.00377561
0.00432493
0.00449362
0.00453711
0.00454292
0.0045419
0.00454316
0.00454386
0.0045454
0.000171344
0.00106432
0.00261841
0.0038389
0.00435511
0.00450552
0.00454255
0.00454683
0.00454533
0.00454606
0.00454388
0.00454377
0.000252192
0.00117952
0.00281246
0.0039605
0.00440018
0.00451914
0.00454586
0.00454727
0.00454545
0.00454564
0.00454564
0.0045461
0.000176949
0.000177398
0.000174008
0.000178141
0.000174364
0.000177133
0.000169943
0.000166364
0.000161691
0.000151232
0.000129879
5.30848e-05
0.00141458
0.00141306
0.0014185
0.0014229
0.00141678
0.00141339
0.00141053
0.00138063
0.00124432
0.000920798
0.000420481
7.12715e-05
0.00322732
0.0032243
0.00322554
0.00322667
0.00322392
0.00322061
0.00320157
0.00306952
0.00259452
0.00169832
0.000713549
8.72136e-05
0.00418892
0.00418755
0.00418771
0.00418784
0.00418671
0.00418349
0.00415903
0.00398886
0.00335356
0.00213024
0.000865207
9.98941e-05
0.00445901
0.00445906
0.00445877
0.00445807
0.00445775
0.00445598
0.00443606
0.00428628
0.00366847
0.00236333
0.000959503
0.000108328
0.00451976
0.0045195
0.00452032
0.00452024
0.00451987
0.00451861
0.00450318
0.00438296
0.0038303
0.00254174
0.00105323
0.000116091
0.00453393
0.00453317
0.00453401
0.00453472
0.00453472
0.00453368
0.00452188
0.00442695
0.00394846
0.00270463
0.00114797
0.000128176
0.00453962
0.0045383
0.00453878
0.00453941
0.00453935
0.0045383
0.0045294
0.00445567
0.00404618
0.00285923
0.00124079
0.000139981
0.00454195
0.00453998
0.00453987
0.00454089
0.00454166
0.00454152
0.00453496
0.00447736
0.00413246
0.00301505
0.00134068
0.000157452
0.00454629
0.00454492
0.00454207
0.00454121
0.0045427
0.00454378
0.00453945
0.00449582
0.00420966
0.0031776
0.00145536
0.000172907
0.0045444
0.0045431
0.00454503
0.00454757
0.00454703
0.00454667
0.00454347
0.00451052
0.00427836
0.00335048
0.00160678
0.000197394
0.00454637
0.00454632
0.00454713
0.00454797
0.00454718
0.0045485
0.00454674
0.0045238
0.00435238
0.00357376
0.00188052
0.000246665
0.00129501
0.00230888
0.00348133
0.00419843
0.00446127
0.00453299
0.00454937
0.00455061
0.00454938
0.00454742
0.00454685
0.0045491
0.00269524
0.00339381
0.00404261
0.00438641
0.00451062
0.00454572
0.00455153
0.00455035
0.00454926
0.00454887
0.00454859
0.00454803
0.00378767
0.00408713
0.00435448
0.0044877
0.00453747
0.00455305
0.00455295
0.00455111
0.00454843
0.00454815
0.00454987
0.00454756
0.00430551
0.00439776
0.00448698
0.00453212
0.00454983
0.00455392
0.00455237
0.00455194
0.00454977
0.00454929
0.00454688
0.00453359
0.00454686
0.00454784
0.00454883
0.00454695
0.00454593
0.00454569
0.00454631
0.00453632
0.0044452
0.003974
0.00267026
0.00089711
0.00454753
0.00455
0.00455045
0.00454814
0.00454615
0.00454535
0.00454673
0.00454401
0.00450639
0.00429683
0.00358699
0.00237306
0.00454586
0.00454948
0.00454994
0.00454964
0.00455008
0.00454957
0.0045498
0.0045488
0.00453475
0.00446009
0.00418266
0.00363093
0.00453215
0.00454921
0.00455452
0.00455475
0.00455506
0.00455339
0.00455201
0.00455154
0.00454738
0.00452417
0.00443702
0.00425551
0.00448293
0.00451068
0.00453632
0.00454965
0.00455511
0.00455615
0.00455603
0.00455575
0.00455513
0.00455233
0.00452671
0.00442839
0.00453693
0.00454509
0.00455209
0.00455584
0.00455767
0.00455789
0.00455797
0.00455777
0.00455616
0.0045381
0.00439123
0.00398591
0.00455267
0.00455545
0.00455738
0.00455839
0.00455922
0.00455927
0.00455932
0.00455901
0.00455261
0.00447201
0.00397916
0.00296915
0.00455753
0.00455905
0.00455969
0.00455995
0.00456037
0.00456037
0.00456036
0.00455935
0.00453942
0.00432684
0.00326584
0.00154434
0.00441323
0.00450832
0.00454662
0.00455495
0.00455627
0.00455594
0.00455573
0.00455608
0.00455492
0.00454738
0.00452014
0.00446986
0.00395068
0.00434708
0.00451408
0.00455097
0.00455713
0.00455784
0.00455792
0.00455819
0.00455799
0.00455576
0.00454792
0.00453499
0.00290376
0.00392872
0.00442729
0.00453893
0.00455686
0.00455925
0.00455947
0.00455954
0.00455957
0.00455893
0.0045568
0.00455344
0.00145357
0.0032366
0.00427705
0.00451846
0.00455539
0.00456014
0.0045606
0.00456079
0.00456071
0.00456052
0.00455991
0.00455887
0.00455954
0.00456082
0.00456114
0.00456112
0.00456133
0.00456135
0.00456138
0.0045592
0.00452195
0.0041603
0.00247894
0.000334925
0.00456074
0.00456195
0.00456218
0.00456209
0.00456228
0.00456231
0.00456234
0.00455964
0.0045157
0.0041056
0.00233157
0.000275997
0.00456175
0.00456293
0.0045631
0.00456302
0.00456317
0.00456325
0.00456324
0.00456061
0.00451773
0.00411358
0.0023472
0.000275243
0.0045626
0.00456382
0.00456398
0.00456401
0.00456401
0.00456406
0.00456406
0.00456179
0.00452318
0.00414534
0.00241269
0.000286159
0.00456336
0.00456454
0.00456472
0.00456479
0.00456469
0.00456472
0.00456476
0.00456288
0.00452922
0.0041827
0.00249111
0.000297297
0.00455833
0.00455816
0.00455809
0.00455808
0.00455797
0.00455797
0.00455806
0.00455654
0.00452763
0.00421231
0.0025681
0.000309856
0.00450641
0.00450164
0.00450072
0.00450053
0.00450042
0.00450043
0.00450053
0.00449935
0.00447475
0.00419144
0.00262106
0.000321641
0.00422533
0.00420517
0.00420172
0.00420084
0.00420052
0.00420046
0.00420073
0.00420018
0.00418082
0.00394552
0.00256491
0.000331622
0.0034245
0.00339949
0.00339428
0.00339252
0.00339207
0.00339181
0.0033924
0.00339284
0.00338111
0.0032265
0.0022517
0.000332024
0.00220634
0.00219258
0.00218804
0.00218745
0.002187
0.00218681
0.0021881
0.002189
0.00218551
0.00212216
0.00164689
0.000313529
0.000927194
0.000916455
0.000913665
0.000913241
0.000913346
0.000912794
0.000914218
0.00091475
0.000915096
0.0009023
0.000776647
0.000266185
9.51351e-05
9.46538e-05
9.43624e-05
9.39945e-05
9.34203e-05
9.30617e-05
9.30065e-05
9.27797e-05
9.25886e-05
9.20653e-05
8.66785e-05
6.18182e-05
0.000328334
0.00250321
0.00411551
0.00449758
0.00455397
0.0045609
0.00456159
0.00456186
0.00456162
0.00456155
0.00456136
0.00456089
0.000276894
0.0023475
0.00405903
0.00448982
0.00455394
0.00456172
0.00456251
0.00456268
0.00456252
0.00456261
0.00456248
0.00456209
0.000277427
0.00235413
0.00406476
0.00449229
0.00455511
0.00456261
0.00456343
0.00456343
0.00456334
0.00456343
0.00456339
0.00456304
0.000287745
0.00241108
0.00409568
0.00449944
0.00455686
0.00456353
0.00456432
0.00456418
0.0045641
0.00456413
0.00456414
0.00456389
0.000299394
0.00248251
0.00413364
0.00450774
0.00455865
0.00456434
0.00456504
0.00456484
0.00456479
0.00456484
0.00456485
0.00456462
0.000311201
0.00255499
0.00416513
0.00450862
0.00455314
0.00455792
0.00455852
0.00455833
0.00455835
0.0045584
0.00455834
0.00455808
0.000324253
0.00260711
0.00414839
0.00445856
0.00449706
0.00450109
0.0045016
0.00450155
0.00450167
0.00450167
0.00450147
0.00450162
0.000334772
0.00255679
0.00391256
0.00416971
0.004201
0.00420455
0.00420531
0.00420556
0.00420563
0.00420554
0.0042051
0.00420573
0.000334881
0.0022476
0.00320781
0.00337737
0.00339823
0.00340127
0.00340241
0.00340305
0.00340309
0.00340266
0.00340175
0.00340358
0.000315105
0.00164033
0.00211357
0.00218699
0.00219674
0.00219876
0.00219959
0.00220074
0.00219975
0.00219994
0.00219989
0.00219919
0.000266551
0.000776277
0.000900447
0.000917663
0.000920739
0.000921638
0.000922012
0.000922786
0.00092209
0.000922294
0.000923128
0.000920759
6.21658e-05
8.69602e-05
9.22147e-05
9.28116e-05
9.29155e-05
9.31339e-05
9.34056e-05
9.36663e-05
9.38185e-05
9.40247e-05
9.41327e-05
9.41953e-05
)
;

boundaryField
{
    rotor
    {
        type            nutkWallFunction;
        Cmu             0.09;
        kappa           0.41;
        E               9.8;
        value           nonuniform List<scalar> 
48
(
8.27846e-06
2.44356e-05
2.55694e-05
2.64271e-05
2.64065e-05
2.66547e-05
2.61721e-05
2.6389e-05
2.67709e-05
2.70602e-05
2.6489e-05
2.63986e-05
2.66348e-05
2.68121e-05
2.63437e-05
2.63201e-05
2.64948e-05
2.68373e-05
2.64976e-05
2.6279e-05
2.5801e-05
2.48555e-05
2.30991e-05
7.94788e-06
8.27846e-06
1.13095e-05
1.32151e-05
1.5052e-05
1.70398e-05
1.8901e-05
2.09014e-05
2.26179e-05
2.50278e-05
2.66441e-05
2.90053e-05
3.58436e-05
7.94788e-06
1.08519e-05
1.30538e-05
1.49596e-05
1.69102e-05
1.87283e-05
2.08406e-05
2.30516e-05
2.56055e-05
2.80126e-05
3.09507e-05
3.52656e-05
)
;
    }
    stator
    {
        type            nutkWallFunction;
        Cmu             0.09;
        kappa           0.41;
        E               9.8;
        value           nonuniform List<scalar> 
48
(
1.79457e-05
1.79075e-05
1.78765e-05
1.78232e-05
1.77727e-05
1.77507e-05
1.77317e-05
1.77044e-05
1.76829e-05
1.76421e-05
1.72123e-05
1.47365e-05
1.4791e-05
1.72397e-05
1.76523e-05
1.76948e-05
1.77057e-05
1.77267e-05
1.7762e-05
1.77853e-05
1.77977e-05
1.78167e-05
1.78276e-05
1.78366e-05
5.08612e-05
4.85335e-05
4.97111e-05
5.14963e-05
5.34073e-05
5.53258e-05
5.73066e-05
5.9175e-05
6.05156e-05
6.0329e-05
5.69862e-05
1.4791e-05
5.11325e-05
4.83981e-05
4.95429e-05
5.14189e-05
5.32841e-05
5.52444e-05
5.71605e-05
5.9006e-05
6.03275e-05
6.01722e-05
5.68793e-05
1.47365e-05
)
;
    }
    front
    {
        type            empty;
    }
    back
    {
        type            empty;
    }
    procBoundary2to0
    {
        type            processor;
        value           nonuniform List<scalar> 
20
(
0.00089218
0.00236782
0.00363239
0.0042574
0.00447088
0.00453543
0.00455364
0.004559
0.00456104
0.00456221
0.00456315
0.00456401
0.00456469
0.00455814
0.00450165
0.00420576
0.00340366
0.00219922
0.000920598
9.46001e-05
)
;
    }
    procBoundary2to3
    {
        type            processor;
        value           nonuniform List<scalar> 
20
(
0.00129291
0.00269616
0.00378623
0.00430414
0.00448233
0.0045368
0.0045527
0.00455755
0.00455951
0.00456073
0.00456168
0.00456256
0.00456333
0.00455831
0.00450632
0.00422518
0.00342431
0.0022067
0.000927422
9.48641e-05
)
;
    }
}


// ************************************************************************* //
