/*--------------------------------*- C++ -*----------------------------------*\
  =========                 |
  \\      /  F ield         | OpenFOAM: The Open Source CFD Toolbox
   \\    /   O peration     | Website:  https://openfoam.org
    \\  /    A nd           | Version:  6
     \\/     M anipulation  |
\*---------------------------------------------------------------------------*/
FoamFile
{
    version     2.0;
    format      ascii;
    class       volScalarField;
    location    "1500";
    object      p;
}
// * * * * * * * * * * * * * * * * * * * * * * * * * * * * * * * * * * * * * //

dimensions      [0 2 -2 0 0 0 0];

internalField   nonuniform List<scalar> 
768
(
1.0413
1.12987
1.34981
1.62714
1.95179
2.29259
2.66016
3.0281
3.41373
3.79494
4.18989
4.57478
0.928423
1.09879
1.31205
1.56269
1.89802
2.26725
2.65296
3.03785
3.43038
3.81994
4.21501
4.60454
0.713916
0.981592
1.19607
1.42222
1.76467
2.16651
2.58337
2.99537
3.40439
3.80718
4.20849
4.60479
0.54657
0.866689
1.08894
1.3236
1.68452
2.10987
2.5478
2.97648
3.39572
3.80438
4.20733
4.60402
0.445416
0.806295
1.03397
1.29258
1.67859
2.12066
2.56766
3.00018
3.41874
3.82357
4.22037
4.60978
0.402752
0.789107
1.03184
1.32175
1.73012
2.18385
2.62943
3.05846
3.46641
3.86202
4.24469
4.62332
0.394147
0.813005
1.0845
1.40709
1.83798
2.29112
2.73114
3.14408
3.53856
3.91413
4.28177
4.64041
0.423311
0.887415
1.19441
1.55487
1.99734
2.4443
2.86512
3.2577
3.62756
3.98134
4.32522
4.66352
0.481918
1.00409
1.36404
1.76159
2.2065
2.63397
3.02714
3.39003
3.73079
4.05704
4.37491
4.68884
0.591741
1.19311
1.61093
2.03268
2.46084
2.85381
3.20856
3.53497
3.84203
4.13786
4.42766
4.71589
0.81007
1.50537
1.96195
2.37174
2.75335
3.0933
3.39999
3.68453
3.95554
4.21936
4.48097
4.74296
1.31721
2.03919
2.45105
2.77535
3.07058
3.34019
3.59184
3.83213
4.06634
4.29862
4.53259
4.76924
4.96696
5.34631
5.73052
6.10102
6.47027
6.82285
7.17226
7.50666
7.82392
8.06327
8.25866
8.4523
4.99639
5.38055
5.76439
6.13954
6.51257
6.8771
7.24067
7.59598
7.9198
8.15794
8.36375
8.57646
5.00018
5.39109
5.78092
6.16714
6.55401
6.94123
7.33292
7.72139
8.0654
8.29688
8.50686
8.7899
4.99846
5.38994
5.78198
6.17389
6.57032
6.9722
7.38395
7.79727
8.17054
8.4251
8.66003
8.97986
4.99697
5.38194
5.769
6.1585
6.5547
6.96022
7.37889
7.80689
8.20783
8.49775
8.75371
9.12038
4.9963
5.37123
5.74629
6.12756
6.5151
6.91542
7.33076
7.76355
8.18165
8.49833
8.75916
9.17457
4.99896
5.35522
5.71637
6.08038
6.45454
6.83916
7.24434
7.66828
8.08929
8.42724
8.70555
9.14145
4.99997
5.33682
5.67592
6.01998
6.37082
6.7351
7.11691
7.52332
7.94261
8.29603
8.58508
9.04116
5.00172
5.31483
5.62978
5.94758
6.2717
6.60638
6.95995
7.33976
7.73799
8.10364
8.4121
8.87309
5.00362
5.29156
5.57981
5.86891
6.16197
6.46286
6.7801
7.12201
7.4945
7.84923
8.15526
8.6281
5.00562
5.26789
5.52862
5.78809
6.04788
6.31236
6.58815
6.88389
7.20404
7.53042
7.8117
8.22698
5.00766
5.24479
5.47848
5.70849
5.93531
6.16263
6.39362
6.63435
6.88986
7.14192
7.34454
7.63721
3.0664
2.86693
3.03079
3.19757
3.38311
3.57694
3.77335
3.97087
4.17008
4.37281
4.5808
4.79397
4.12888
3.57505
3.51026
3.55759
3.65793
3.78881
3.93719
4.09666
4.26441
4.44037
4.62468
4.81649
4.53719
4.02756
3.86701
3.84223
3.88516
3.96913
4.07918
4.20677
4.34754
4.49998
4.66369
4.83666
4.71186
4.30599
4.12442
4.06233
4.06886
4.11947
4.20005
4.30171
4.41967
4.5521
4.6976
4.85321
5.00982
5.22314
5.43133
5.63324
5.82937
6.02099
6.20933
6.39387
6.56763
6.7108
6.73028
6.3687
5.01241
5.20381
5.38828
5.56459
5.73296
5.89298
6.04409
6.18175
6.29624
6.36017
6.31366
6.0109
5.01597
5.18739
5.35022
5.50399
5.64803
5.78155
5.90246
6.00521
6.07816
6.1006
6.02586
5.73324
5.02201
5.17468
5.31786
5.45178
5.57496
5.68642
5.7833
5.86046
5.9072
5.9042
5.81725
5.55565
4.79671
4.48178
4.30874
4.23138
4.21636
4.24416
4.30252
4.38341
4.48238
4.59776
4.72713
4.86769
4.83726
4.59416
4.44161
4.36209
4.33554
4.348
4.38956
4.45361
4.5365
4.63708
4.75213
4.87387
4.86095
4.67012
4.53885
4.46261
4.43033
4.43234
4.46115
4.51142
4.58041
4.66751
4.76632
4.86938
4.87601
4.72334
4.61104
4.54037
4.50575
4.5007
4.51968
4.55841
4.6146
4.68726
4.76574
4.83925
5.03265
5.16714
5.29286
5.40959
5.51527
5.60842
5.68651
5.74448
5.77289
5.75622
5.66585
5.44412
5.05237
5.16631
5.27541
5.37709
5.46772
5.54563
5.60866
5.6521
5.66786
5.64226
5.55429
5.36951
5.08048
5.1725
5.26448
5.35239
5.42978
5.49492
5.54577
5.57812
5.58501
5.55535
5.47339
5.32075
5.12384
5.18994
5.26095
5.33462
5.39971
5.45377
5.49454
5.5184
5.51921
5.4882
5.41452
5.2886
4.88586
4.76155
4.66529
4.60078
4.56563
4.55573
4.56699
4.59587
4.6401
4.6968
4.7489
4.77779
4.89281
4.78958
4.70655
4.64805
4.61346
4.60029
4.60544
4.626
4.65952
4.70187
4.73622
4.75416
4.89744
4.81052
4.73837
4.68533
4.65179
4.63626
4.63658
4.65015
4.67469
4.70601
4.73021
4.74243
4.90098
4.82639
4.7631
4.71491
4.68268
4.6656
4.66203
4.66988
4.68688
4.70942
4.7271
4.73509
4.90313
4.83872
4.78269
4.73875
4.70783
4.68955
4.68292
4.68591
4.69688
4.71238
4.72468
4.73042
4.90509
4.84828
4.79835
4.758
4.7284
4.70937
4.70017
4.69932
4.7051
4.71493
4.72309
4.7268
4.90611
4.85595
4.81111
4.7738
4.74545
4.72571
4.71451
4.71033
4.71196
4.71721
4.72176
4.72445
4.90699
4.86196
4.82125
4.78651
4.75927
4.73901
4.72621
4.71934
4.7176
4.71911
4.72096
4.72261
4.9074
4.86611
4.8287
4.79565
4.7694
4.74863
4.73469
4.72592
4.7216
4.72067
4.72036
4.72155
4.9073
4.86823
4.83227
4.80047
4.77445
4.75367
4.73906
4.72926
4.7238
4.72136
4.72026
4.72078
4.90726
4.8688
4.83339
4.80201
4.77598
4.75528
4.74036
4.73035
4.72449
4.72165
4.72036
4.72055
4.90728
4.86894
4.83367
4.8024
4.77629
4.75565
4.74065
4.73065
4.72475
4.72187
4.72067
4.72082
5.19106
5.21652
5.26395
5.32269
5.37644
5.42082
5.45333
5.47045
5.46712
5.4365
5.37105
5.26667
5.21849
5.23584
5.26828
5.31453
5.35824
5.39423
5.41978
5.4316
5.42543
5.39604
5.33852
5.25133
5.23413
5.24631
5.27173
5.30871
5.34405
5.37295
5.39267
5.40023
5.39206
5.36437
5.31367
5.24021
5.24526
5.25394
5.27473
5.30448
5.33281
5.35566
5.37047
5.37456
5.36503
5.33899
5.29448
5.23198
5.25374
5.26017
5.27746
5.30138
5.32394
5.34165
5.35227
5.35352
5.34289
5.31875
5.2792
5.2256
5.26079
5.26574
5.2801
5.2992
5.31683
5.33009
5.33721
5.33593
5.32471
5.30187
5.26694
5.22055
5.26658
5.27067
5.28272
5.29772
5.31123
5.32063
5.32471
5.32129
5.30951
5.28807
5.2567
5.21631
5.27151
5.27522
5.28536
5.2969
5.3069
5.31303
5.31451
5.3093
5.29702
5.27666
5.24828
5.21273
5.27556
5.27928
5.28799
5.2967
5.30424
5.3076
5.30741
5.30037
5.28816
5.268
5.24204
5.20993
5.27867
5.28256
5.29007
5.29735
5.30317
5.30542
5.30373
5.29621
5.28323
5.26368
5.23838
5.20825
5.28052
5.28431
5.29113
5.29788
5.3031
5.30495
5.30275
5.29497
5.28174
5.26211
5.23705
5.20748
5.28093
5.28463
5.29125
5.29794
5.30304
5.30489
5.30256
5.29479
5.28143
5.26178
5.23673
5.20716
)
;

boundaryField
{
    rotor
    {
        type            zeroGradient;
    }
    stator
    {
        type            zeroGradient;
    }
    front
    {
        type            empty;
    }
    back
    {
        type            empty;
    }
    procBoundary2to0
    {
        type            processor;
        value           nonuniform List<scalar> 
20
(
6.16861
5.79441
5.5081
5.32384
5.20766
5.12931
5.07765
5.04276
5.01865
5.001
4.98807
4.97779
4.96997
4.96317
4.95793
4.95336
4.94993
4.94804
4.94722
4.94707
)
;
    }
    procBoundary2to3
    {
        type            processor;
        value           nonuniform List<scalar> 
20
(
3.30479
4.35907
4.76565
4.94201
5.02972
5.07375
5.10098
5.11953
5.13298
5.1432
5.15114
5.15752
5.16262
5.16679
5.17011
5.17264
5.17426
5.17498
5.17507
5.17496
)
;
    }
}


// ************************************************************************* //
