/*--------------------------------*- C++ -*----------------------------------*\
  =========                 |
  \\      /  F ield         | OpenFOAM: The Open Source CFD Toolbox
   \\    /   O peration     | Website:  https://openfoam.org
    \\  /    A nd           | Version:  6
     \\/     M anipulation  |
\*---------------------------------------------------------------------------*/
FoamFile
{
    version     2.0;
    format      ascii;
    class       volScalarField;
    location    "1500";
    object      epsilon;
}
// * * * * * * * * * * * * * * * * * * * * * * * * * * * * * * * * * * * * * //

dimensions      [0 2 -3 0 0 0 0];

internalField   nonuniform List<scalar> 
768
(
264.157
193.318
202.611
206.978
205.813
207.659
207.632
219.325
220.989
216.594
214.658
215.821
259.791
105.795
80.6605
69.0669
63.5824
61.1779
60.0139
59.8459
59.5652
59.1749
58.9219
58.919
231.022
88.399
50.7726
35.6506
30.0078
27.9965
27.2968
27.0859
27.0211
26.9973
26.9836
26.9901
205.167
81.5235
43.1722
28.4287
23.3054
21.6201
21.0943
20.9384
20.8964
20.8909
20.8897
20.8932
194.869
77.86
40.1337
26.2391
21.6434
20.1979
19.7769
19.6549
19.6273
19.6171
19.619
19.6159
186.194
74.3699
38.0838
25.1566
21.0298
19.7978
19.4415
19.3559
19.3266
19.3282
19.3202
19.3253
174.701
71.3306
36.4596
24.3867
20.6864
19.6124
19.3218
19.2449
19.2285
19.2215
19.2253
19.2194
167.568
68.7989
35.1763
23.7931
20.4319
19.493
19.2435
19.1802
19.1681
19.1646
19.1645
19.1655
158.478
67.3638
34.2616
23.3594
20.2409
19.4016
19.183
19.1255
19.1144
19.1149
19.1082
19.1082
153.455
66.8388
33.7658
23.0445
20.0921
19.3236
19.1269
19.077
19.0637
19.0608
19.0604
19.0643
152.343
69.0583
33.3581
22.7309
19.9498
19.2497
19.0765
19.0417
19.0358
19.0222
19.0171
19.0164
180.512
69.0031
31.3714
22.0368
19.7267
19.1614
19.0203
18.9965
18.9889
18.9802
18.9857
18.9837
214.497
215.648
216.835
223.636
221.159
216.786
217.428
221.475
214.156
201.72
183.961
263.254
58.8636
58.9706
59.0865
59.424
59.3651
59.2447
59.3591
60.6079
65.628
80.1618
117.574
261.187
26.9919
26.9953
26.9938
27.0231
27.0399
27.0645
27.2314
28.365
33.2106
48.1881
87.9517
232.096
20.8945
20.8939
20.8915
20.8986
20.9072
20.9234
21.0459
21.9236
25.8989
39.1892
76.3075
206.229
19.6195
19.6161
19.6191
19.618
19.6232
19.6294
19.7241
20.4
23.7129
35.576
70.3772
196.213
19.319
19.3221
19.3136
19.32
19.3149
19.3274
19.3893
19.9204
22.6969
33.2291
65.8392
183.676
19.218
19.2099
19.2052
19.203
19.2068
19.2115
19.2691
19.6838
22.0163
31.4105
61.2015
176.043
19.162
19.1505
19.144
19.1474
19.1481
19.1536
19.1972
19.53
21.5075
29.9492
59.3003
171.687
19.1092
19.0988
19.0968
19.0952
19.0942
19.1034
19.1447
19.411
21.0853
28.7082
56.0537
169.972
19.0672
19.0623
19.0609
19.0597
19.0579
19.0618
19.0978
19.3175
20.7261
27.5236
54.1563
164.509
19.0194
19.0215
19.0174
19.022
19.0284
19.031
19.0595
19.2377
20.3898
26.3275
51.3534
164.028
18.9781
18.9751
18.9754
18.9838
18.9917
18.9973
19.0213
19.1589
20.0277
24.8982
49.4871
172.593
65.4994
39.3116
25.4611
20.7524
19.4082
19.0589
18.9669
18.955
18.9522
18.9485
18.9491
18.941
34.1394
26.4919
21.7245
19.7679
19.1422
18.9667
18.92
18.915
18.9233
18.9095
18.8926
18.8981
23.6592
21.5536
19.9608
19.2328
18.9776
18.8994
18.8782
18.8837
18.8926
18.8795
18.8735
18.8899
20.333
19.7524
19.2352
18.9759
18.8838
18.8492
18.846
18.8552
18.852
18.8531
18.8639
18.9143
18.9371
18.9354
18.9408
18.9416
18.9464
18.9571
18.9754
19.062
19.5584
22.3165
35.4108
88.8645
18.902
18.8978
18.8967
18.9063
18.917
18.9208
18.9319
18.9808
19.212
20.3832
25.2812
39.9377
18.8885
18.8779
18.8721
18.8777
18.8872
18.8988
18.9063
18.9255
19.0177
19.4498
21.0489
24.8418
18.9257
18.8654
18.8385
18.8386
18.8367
18.8477
18.8568
18.8823
18.9198
19.0593
19.5476
20.5742
19.2899
19.0998
18.9342
18.8498
18.8167
18.8032
18.7994
18.8013
18.8016
18.8118
18.9053
19.2847
18.9472
18.8721
18.8164
18.7861
18.7727
18.7669
18.765
18.7657
18.7717
18.8383
19.4061
21.1623
18.8227
18.7816
18.7582
18.7479
18.7416
18.7386
18.738
18.7393
18.7631
19.0672
21.1657
27.2404
18.7673
18.7356
18.7241
18.7193
18.7159
18.7138
18.7134
18.7178
18.7922
19.6181
25.0744
45.0618
19.3401
18.9758
18.8316
18.8021
18.7996
18.805
18.8107
18.8225
18.8376
18.8905
19.0482
19.331
21.2869
19.5676
18.9265
18.7922
18.7718
18.7721
18.7748
18.7801
18.7886
18.8079
18.8581
18.9372
27.4267
21.3316
19.2277
18.8141
18.7508
18.7444
18.7454
18.7483
18.7533
18.7608
18.7764
18.8004
45.4519
25.0704
19.7892
18.8682
18.7366
18.7214
18.7208
18.7221
18.725
18.7278
18.7323
18.7428
18.7341
18.7057
18.698
18.696
18.694
18.6926
18.6923
18.7009
18.8393
20.2867
31.3697
114.448
18.7092
18.6826
18.6764
18.675
18.6741
18.6731
18.6729
18.6831
18.8451
20.4865
32.4045
97.7097
18.6887
18.6632
18.6577
18.6565
18.656
18.6556
18.6555
18.6652
18.822
20.4233
32.0016
93.8584
18.6704
18.6455
18.6413
18.6406
18.64
18.6394
18.6393
18.6476
18.7878
20.2662
31.2474
91.6266
18.654
18.6301
18.6263
18.6258
18.625
18.6247
18.6247
18.6314
18.753
20.0928
30.4454
89.6686
18.6595
18.6412
18.6391
18.6386
18.6381
18.6376
18.6375
18.6428
18.7469
19.9566
29.7154
87.9064
18.8366
18.8346
18.8353
18.835
18.8357
18.8347
18.8352
18.8386
18.9294
20.0292
29.2196
86.2517
19.92
19.981
19.9923
19.9939
19.9972
19.9953
19.9959
19.9962
20.0772
21.0902
29.6637
84.6738
23.7822
23.8818
23.9048
23.9061
23.9205
23.9097
23.9174
23.9041
23.9814
24.89
32.4711
82.7178
32.9997
33.0048
33.0245
33.029
33.0346
33.0123
33.0188
32.9829
33.0389
33.6438
38.9116
77.7382
53.4516
53.3964
53.347
53.339
53.3173
53.2069
53.2341
53.0985
53.1509
53.2326
54.6121
65.7901
122.024
121.758
121.528
121.344
121.092
120.768
120.458
120.077
119.888
119.752
117.973
104.493
114.44
30.9544
20.4365
18.9248
18.7234
18.6996
18.6979
18.6986
18.7003
18.7014
18.7029
18.7088
98.2617
32.0667
20.6381
18.9341
18.7069
18.6801
18.6777
18.6785
18.6787
18.6787
18.6788
18.685
94.3245
31.7677
20.5803
18.9079
18.6871
18.6614
18.6591
18.6601
18.6604
18.6595
18.6597
18.6642
91.8632
31.0957
20.4251
18.8674
18.6672
18.6447
18.6426
18.6433
18.6432
18.6421
18.6416
18.6471
89.8984
30.3622
20.2487
18.8242
18.6475
18.6287
18.6269
18.6275
18.6277
18.6263
18.6265
18.6303
88.0632
29.6705
20.1061
18.8097
18.6557
18.64
18.6382
18.6383
18.638
18.6376
18.6373
18.6422
86.3866
29.1893
20.1642
18.9831
18.8469
18.8344
18.8318
18.8327
18.8313
18.8318
18.8326
18.8341
84.7883
29.5804
21.1924
20.1142
19.9905
19.9791
19.9742
19.9756
19.9724
19.9748
19.9763
19.9763
82.9069
32.3574
24.9373
23.9859
23.8639
23.8622
23.8419
23.8553
23.8391
23.8551
23.8564
23.8468
78.1524
38.9056
33.6475
33.0037
32.9057
32.917
32.8873
32.9081
32.8817
32.9328
32.9259
32.9003
66.3463
54.5479
53.2055
53.1263
53.0428
53.1544
53.0653
53.1684
53.0661
53.2855
53.2448
53.1491
104.906
118.021
119.653
119.812
119.971
120.105
120.594
120.717
120.701
121.249
121.289
120.993
)
;

boundaryField
{
    rotor
    {
        Cmu             0.09;
        kappa           0.41;
        E               9.8;
        type            epsilonWallFunction;
        value           nonuniform List<scalar> 
48
(
264.157
193.318
202.611
206.978
205.813
207.659
207.632
219.325
220.989
216.594
214.658
215.821
214.497
215.648
216.835
223.636
221.159
216.786
217.428
221.475
214.156
201.72
183.961
263.254
263.254
261.187
232.096
206.229
196.213
183.676
176.043
171.687
169.972
164.509
164.028
172.593
264.157
259.791
231.022
205.167
194.869
186.194
174.701
167.568
158.478
153.455
152.343
180.512
)
;
    }
    stator
    {
        Cmu             0.09;
        kappa           0.41;
        E               9.8;
        type            epsilonWallFunction;
        value           nonuniform List<scalar> 
48
(
122.024
121.758
121.528
121.344
121.092
120.768
120.458
120.077
119.888
119.752
117.973
104.493
104.906
118.021
119.653
119.812
119.971
120.105
120.594
120.717
120.701
121.249
121.289
120.993
114.44
98.2617
94.3245
91.8632
89.8984
88.0632
86.3866
84.7883
82.9069
78.1524
66.3463
104.906
114.448
97.7097
93.8584
91.6266
89.6686
87.9064
86.2517
84.6738
82.7178
77.7382
65.7901
104.493
)
;
    }
    front
    {
        type            empty;
    }
    back
    {
        type            empty;
    }
    procBoundary3to1
    {
        type            processor;
        value           nonuniform List<scalar> 
20
(
65.5273
34.2512
23.6982
20.345
19.2929
18.9477
18.8229
18.7671
18.7349
18.7099
18.6899
18.6714
18.6555
18.6601
18.8374
19.9203
23.777
32.9995
53.4477
122.104
)
;
    }
    procBoundary3to2
    {
        type            processor;
        value           nonuniform List<scalar> 
20
(
87.957
39.6744
24.7807
20.5598
19.3272
18.9346
18.7989
18.7408
18.7075
18.6832
18.663
18.6452
18.6293
18.6405
18.833
19.9754
23.8476
32.9085
53.1621
121.03
)
;
    }
}


// ************************************************************************* //
