/*--------------------------------*- C++ -*----------------------------------*\
  =========                 |
  \\      /  F ield         | OpenFOAM: The Open Source CFD Toolbox
   \\    /   O peration     | Website:  https://openfoam.org
    \\  /    A nd           | Version:  6
     \\/     M anipulation  |
\*---------------------------------------------------------------------------*/
FoamFile
{
    version     2.0;
    format      ascii;
    class       volScalarField;
    location    "1500";
    object      k;
}
// * * * * * * * * * * * * * * * * * * * * * * * * * * * * * * * * * * * * * //

dimensions      [0 2 -2 0 0 0 0];

internalField   nonuniform List<scalar> 
768
(
0.410722
0.562274
0.606843
0.638138
0.628842
0.645353
0.645538
0.669452
0.667406
0.666578
0.65592
0.659497
0.477293
0.772901
0.902303
0.943161
0.9546
0.96016
0.962013
0.964705
0.964876
0.964901
0.96373
0.96384
0.470058
0.815683
0.939633
0.971154
0.979887
0.982776
0.983675
0.984139
0.984161
0.984149
0.983996
0.983978
0.464986
0.828517
0.948036
0.975358
0.98285
0.985206
0.985907
0.986166
0.986233
0.986288
0.986254
0.986234
0.477321
0.839284
0.95277
0.976724
0.983315
0.985162
0.985826
0.985897
0.986046
0.985944
0.985993
0.985887
0.48592
0.851469
0.956921
0.977893
0.983045
0.984785
0.985023
0.985301
0.985101
0.98523
0.985037
0.985181
0.489901
0.862836
0.961581
0.978786
0.983018
0.984067
0.984364
0.984294
0.984265
0.984084
0.984064
0.983994
0.507197
0.879158
0.967732
0.980109
0.982781
0.983395
0.983477
0.983359
0.983256
0.983084
0.982971
0.982958
0.50549
0.891439
0.973536
0.981571
0.982661
0.982772
0.982666
0.9825
0.982385
0.982253
0.982071
0.98201
0.518624
0.894863
0.979296
0.982943
0.982494
0.982147
0.981834
0.981554
0.981438
0.981339
0.981228
0.981092
0.536165
0.900075
0.983355
0.984121
0.982368
0.981513
0.980911
0.980561
0.980401
0.980319
0.98031
0.98024
0.708458
0.947657
0.988522
0.984445
0.981778
0.980498
0.979842
0.979562
0.979386
0.979309
0.979245
0.979273
0.642432
0.63974
0.651741
0.663965
0.655562
0.657106
0.654388
0.656563
0.622905
0.584904
0.518375
0.396437
0.962818
0.963222
0.963982
0.96575
0.965962
0.966716
0.966754
0.965316
0.953154
0.905765
0.740359
0.45582
0.983858
0.98395
0.98403
0.984242
0.984278
0.984417
0.984397
0.983703
0.978899
0.953767
0.835051
0.474882
0.986178
0.986215
0.986214
0.98625
0.986264
0.986314
0.986306
0.985829
0.982487
0.963256
0.85686
0.477467
0.985992
0.98592
0.985986
0.985884
0.985977
0.985942
0.986086
0.98565
0.983173
0.966771
0.865893
0.479647
0.984985
0.985121
0.984911
0.985034
0.984886
0.985103
0.985031
0.98501
0.982921
0.96938
0.878397
0.478596
0.984053
0.983954
0.98394
0.983829
0.983831
0.983836
0.984128
0.98407
0.982868
0.972552
0.885355
0.502053
0.982947
0.982832
0.982668
0.982631
0.982642
0.98283
0.983077
0.983416
0.983098
0.97569
0.904496
0.513834
0.981993
0.981916
0.981882
0.981805
0.981808
0.981965
0.982325
0.982786
0.983452
0.980531
0.9138
0.546616
0.9809
0.980854
0.980861
0.98091
0.981028
0.981201
0.981605
0.982357
0.984044
0.984189
0.936228
0.566979
0.980002
0.979937
0.979979
0.97996
0.980099
0.98041
0.980817
0.981753
0.98418
0.989334
0.957766
0.603363
0.979142
0.979073
0.979226
0.979184
0.979258
0.979628
0.980061
0.981139
0.984128
0.993987
1.0168
0.685595
0.970024
1.00248
0.992136
0.98373
0.980615
0.979518
0.978998
0.978594
0.978438
0.978492
0.978482
0.978458
1.0113
0.998927
0.987627
0.981508
0.979324
0.978602
0.978182
0.977767
0.977703
0.977687
0.977558
0.977674
0.99766
0.989242
0.982518
0.979414
0.97822
0.977538
0.977188
0.977038
0.977057
0.977115
0.977039
0.977115
0.986104
0.982447
0.97923
0.977772
0.977335
0.97673
0.97635
0.976285
0.976356
0.97643
0.976354
0.976257
0.978411
0.978259
0.978236
0.9783
0.978382
0.978734
0.979219
0.980215
0.982949
0.992595
1.02446
0.933563
0.977543
0.977502
0.977617
0.977584
0.977624
0.977835
0.978254
0.979092
0.980992
0.986621
1.00407
1.02239
0.97682
0.976677
0.976873
0.976948
0.976941
0.977028
0.977358
0.977974
0.979123
0.982037
0.989237
0.999837
0.97595
0.975966
0.976084
0.976104
0.976202
0.976316
0.9766
0.977045
0.977648
0.978986
0.981972
0.986088
0.980157
0.978404
0.976931
0.976244
0.975944
0.975673
0.975505
0.975485
0.975513
0.975485
0.975167
0.974107
0.977296
0.976267
0.975602
0.975209
0.975036
0.974903
0.974837
0.974827
0.974829
0.974622
0.973048
0.967839
0.975784
0.975052
0.974654
0.974463
0.974371
0.97431
0.974289
0.974285
0.974228
0.973377
0.967317
0.946583
0.974867
0.974239
0.973997
0.973868
0.973819
0.973785
0.973776
0.973768
0.973571
0.971218
0.953918
0.874145
0.973806
0.974771
0.975268
0.975428
0.975534
0.975637
0.975783
0.97603
0.976402
0.977073
0.97826
0.979807
0.96722
0.972179
0.974266
0.974787
0.974938
0.975026
0.975115
0.975248
0.975459
0.975773
0.976253
0.976845
0.945086
0.965529
0.972567
0.97408
0.974368
0.974452
0.974509
0.974592
0.9747
0.974854
0.975045
0.975301
0.871434
0.950861
0.969834
0.973287
0.973845
0.973952
0.973992
0.974041
0.974084
0.974156
0.974222
0.974384
0.974214
0.973645
0.973453
0.973379
0.97336
0.973338
0.97333
0.973314
0.972923
0.96856
0.930512
0.647956
0.973695
0.973154
0.973013
0.972955
0.972951
0.972926
0.97292
0.972896
0.972398
0.966907
0.917126
0.545878
0.973263
0.972742
0.972624
0.972588
0.972582
0.972562
0.972558
0.972533
0.972022
0.966337
0.914509
0.535976
0.972882
0.97237
0.972278
0.972251
0.972248
0.972226
0.972223
0.972197
0.97172
0.966298
0.916057
0.538737
0.972537
0.972042
0.97196
0.971942
0.971932
0.971915
0.971917
0.971889
0.971466
0.966457
0.91873
0.544076
0.972143
0.971644
0.97158
0.971561
0.971555
0.971533
0.971535
0.971511
0.971134
0.966554
0.921456
0.549679
0.971162
0.970593
0.970513
0.97048
0.97049
0.970461
0.970482
0.970447
0.970128
0.965883
0.923051
0.556168
0.967044
0.966198
0.966055
0.965999
0.966027
0.965991
0.966026
0.965982
0.965697
0.96156
0.919877
0.559678
0.951241
0.949711
0.949428
0.949231
0.949366
0.949202
0.949381
0.949211
0.94905
0.944524
0.901477
0.552777
0.899509
0.896801
0.896101
0.895798
0.895798
0.895684
0.895786
0.895678
0.895513
0.890561
0.843636
0.519325
0.742161
0.73754
0.736267
0.735702
0.73539
0.735207
0.735079
0.734948
0.734862
0.730522
0.685729
0.439364
0.358635
0.356951
0.356029
0.355277
0.354328
0.353514
0.352582
0.351844
0.351277
0.350139
0.337146
0.2683
0.64795
0.927937
0.966682
0.972486
0.973343
0.973473
0.973506
0.97354
0.973561
0.973595
0.973624
0.97372
0.547998
0.914249
0.964709
0.971885
0.972911
0.973056
0.973078
0.973105
0.973104
0.973122
0.973115
0.973225
0.537566
0.911172
0.964035
0.971479
0.972519
0.972659
0.972681
0.972706
0.972709
0.972702
0.972707
0.972782
0.540643
0.912327
0.96405
0.971209
0.972188
0.972316
0.972329
0.972345
0.972343
0.972333
0.972317
0.972426
0.545329
0.91479
0.964314
0.970989
0.971866
0.971986
0.971994
0.972004
0.972012
0.971986
0.971993
0.972064
0.550745
0.917419
0.964563
0.970711
0.971499
0.971599
0.971601
0.971606
0.971599
0.97158
0.971569
0.971679
0.556001
0.919075
0.964025
0.969751
0.970437
0.97055
0.970528
0.970562
0.970528
0.970529
0.970534
0.970597
0.559671
0.916231
0.959855
0.965388
0.966024
0.966153
0.966114
0.966167
0.966099
0.966137
0.966119
0.966193
0.554551
0.898692
0.942957
0.948884
0.949366
0.94974
0.94949
0.949796
0.949492
0.949754
0.949626
0.949698
0.524511
0.842422
0.889496
0.895788
0.896411
0.896782
0.896659
0.896954
0.89665
0.896931
0.896977
0.896739
0.445258
0.687323
0.73058
0.736163
0.736809
0.737283
0.737426
0.738006
0.737564
0.738141
0.738365
0.737555
0.269049
0.337129
0.349687
0.351015
0.351887
0.35227
0.353778
0.354604
0.35545
0.356022
0.356906
0.356848
)
;

boundaryField
{
    rotor
    {
        type            kqRWallFunction;
        value           nonuniform List<scalar> 
48
(
0.410722
0.562274
0.606843
0.638138
0.628842
0.645353
0.645538
0.669452
0.667406
0.666578
0.65592
0.659497
0.642432
0.63974
0.651741
0.663965
0.655562
0.657106
0.654388
0.656563
0.622905
0.584904
0.518375
0.396437
0.396437
0.45582
0.474882
0.477467
0.479647
0.478596
0.502053
0.513834
0.546616
0.566979
0.603363
0.685595
0.410722
0.477293
0.470058
0.464986
0.477321
0.48592
0.489901
0.507197
0.50549
0.518624
0.536165
0.708458
)
;
    }
    stator
    {
        type            kqRWallFunction;
        value           nonuniform List<scalar> 
48
(
0.358635
0.356951
0.356029
0.355277
0.354328
0.353514
0.352582
0.351844
0.351277
0.350139
0.337146
0.2683
0.269049
0.337129
0.349687
0.351015
0.351887
0.35227
0.353778
0.354604
0.35545
0.356022
0.356906
0.356848
0.64795
0.547998
0.537566
0.540643
0.545329
0.550745
0.556001
0.559671
0.554551
0.524511
0.445258
0.269049
0.647956
0.545878
0.535976
0.538737
0.544076
0.549679
0.556168
0.559678
0.552777
0.519325
0.439364
0.2683
)
;
    }
    front
    {
        type            empty;
    }
    back
    {
        type            empty;
    }
    procBoundary3to1
    {
        type            processor;
        value           nonuniform List<scalar> 
20
(
0.969664
1.01104
0.997501
0.986025
0.980127
0.977291
0.975793
0.97487
0.974241
0.973719
0.973307
0.972914
0.972587
0.972172
0.971195
0.967062
0.95118
0.899491
0.742329
0.359822
)
;
    }
    procBoundary3to2
    {
        type            processor;
        value           nonuniform List<scalar> 
20
(
0.936347
1.02279
0.999873
0.98597
0.979738
0.976776
0.975246
0.974319
0.973669
0.973164
0.972739
0.972368
0.972028
0.971624
0.970561
0.966157
0.949662
0.896735
0.737484
0.35591
)
;
    }
}


// ************************************************************************* //
