/*--------------------------------*- C++ -*----------------------------------*\
  =========                 |
  \\      /  F ield         | OpenFOAM: The Open Source CFD Toolbox
   \\    /   O peration     | Website:  https://openfoam.org
    \\  /    A nd           | Version:  6
     \\/     M anipulation  |
\*---------------------------------------------------------------------------*/
FoamFile
{
    version     2.0;
    format      ascii;
    class       volScalarField;
    location    "1500";
    object      nut;
}
// * * * * * * * * * * * * * * * * * * * * * * * * * * * * * * * * * * * * * //

dimensions      [0 2 -1 0 0 0 0];

internalField   nonuniform List<scalar> 
768
(
5.74747e-05
0.000147186
0.000163581
0.000177071
0.000172923
0.000180504
0.000180631
0.000183905
0.000181406
0.000184628
0.000180384
0.000181374
7.89202e-05
0.000508192
0.00090842
0.00115916
0.00128988
0.00135624
0.00138788
0.00139958
0.00140667
0.00141602
0.00141865
0.00141905
8.6078e-05
0.000677389
0.00156505
0.00238096
0.00287979
0.0031049
0.00319033
0.0032182
0.00322606
0.00322882
0.00322945
0.00322856
9.48452e-05
0.000757814
0.00187365
0.00301171
0.00373045
0.00404054
0.00414715
0.00418023
0.00418918
0.00419077
0.00419071
0.00418985
0.000105226
0.000814228
0.00203568
0.00327218
0.00402071
0.00432465
0.00442268
0.00445076
0.00445837
0.00445976
0.00445978
0.00445953
0.000114132
0.000877372
0.00216398
0.00342117
0.00413574
0.00440868
0.00449165
0.00451407
0.00451906
0.00451988
0.00451998
0.0045201
0.000123642
0.000939341
0.00228246
0.00353561
0.00420417
0.00444385
0.00451342
0.00453082
0.00453441
0.00453441
0.00453333
0.00453405
0.000138167
0.0010111
0.00239609
0.00363363
0.00425449
0.00446499
0.00452363
0.00453746
0.00453938
0.00453861
0.0045376
0.00453724
0.00014511
0.00106169
0.00248965
0.00371215
0.00429358
0.00448034
0.00453042
0.0045425
0.00454408
0.00454274
0.00454265
0.00454208
0.000157749
0.00107827
0.00255619
0.00377339
0.00432391
0.0044927
0.00453601
0.00454529
0.00454738
0.00454715
0.00454622
0.00454404
0.000169831
0.00105581
0.00260893
0.00383464
0.00435364
0.00450413
0.00453946
0.0045445
0.00454441
0.00454693
0.00454805
0.00454756
0.000250245
0.00117132
0.00280337
0.00395801
0.00439758
0.00451552
0.00454293
0.00454603
0.00454623
0.00454758
0.00454569
0.00454642
0.000173171
0.000170806
0.000176305
0.000177415
0.00017489
0.000179259
0.000177255
0.000175175
0.000163064
0.000152638
0.000131463
5.37299e-05
0.00141737
0.00141599
0.00141544
0.00141257
0.00141459
0.00141968
0.00141706
0.00138373
0.00124589
0.0009211
0.00041958
7.15941e-05
0.00322755
0.00322775
0.00322846
0.00322635
0.00322459
0.00322256
0.00320268
0.00307035
0.00259681
0.00169898
0.000713549
8.74473e-05
0.00418911
0.00418953
0.00419002
0.00418888
0.0041873
0.00418446
0.00416005
0.00398964
0.0033544
0.00213088
0.000865955
9.94901e-05
0.00445967
0.00445978
0.00445969
0.00445902
0.00445868
0.00445695
0.00443686
0.00428605
0.00366875
0.00236447
0.000958825
0.000105526
0.00451978
0.00452031
0.00452036
0.00451998
0.00451984
0.00451889
0.0045038
0.00438355
0.00383101
0.00254515
0.00105472
0.000112235
0.00453493
0.00453593
0.00453693
0.00453642
0.00453554
0.00453448
0.00452359
0.00442778
0.00394901
0.00271014
0.0011527
0.000128861
0.00453797
0.00453963
0.00453966
0.00453853
0.00453844
0.00453888
0.00453085
0.00445671
0.00404433
0.00286076
0.00124165
0.000138405
0.00454167
0.00454344
0.00454362
0.00454328
0.00454354
0.00454279
0.00453632
0.00447829
0.00412829
0.00301412
0.00134073
0.000158208
0.00454157
0.00454231
0.00454269
0.00454344
0.00454497
0.00454564
0.0045408
0.00449604
0.00420487
0.00316734
0.00145666
0.000175868
0.00454463
0.00454353
0.00454489
0.00454363
0.0045434
0.00454567
0.00454262
0.00450915
0.00427543
0.00334594
0.00160765
0.000199748
0.00454655
0.00454662
0.00454797
0.00454557
0.00454436
0.00454647
0.00454473
0.00452204
0.00435225
0.00357137
0.00188029
0.000245107
0.00129291
0.00230079
0.00347942
0.00419688
0.00445919
0.00453075
0.00454788
0.00454698
0.0045462
0.0045476
0.00454736
0.00454907
0.00269616
0.00338998
0.0040409
0.00438602
0.00450924
0.00454425
0.00455156
0.0045489
0.00454631
0.00454949
0.00455236
0.00455209
0.00378623
0.00408628
0.00435258
0.00448883
0.00453811
0.00455054
0.00455239
0.00454966
0.00454768
0.00455139
0.00455212
0.00454889
0.00430414
0.00439785
0.00448659
0.00453436
0.00455239
0.0045551
0.00455235
0.00454951
0.00455094
0.00455137
0.00454805
0.00453505
0.00454959
0.00454857
0.00454707
0.00454747
0.00454708
0.0045478
0.00454791
0.00453645
0.00444603
0.00397339
0.00266745
0.000882676
0.00454995
0.00455058
0.00455192
0.00454929
0.0045471
0.00454814
0.00454938
0.00454542
0.00450819
0.00429806
0.00358896
0.00235555
0.00454646
0.00454769
0.00455092
0.00455026
0.00454792
0.00454592
0.00454719
0.0045483
0.0045369
0.00446254
0.00418422
0.00362175
0.00452945
0.00454409
0.00455167
0.00455184
0.0045532
0.00455161
0.00455206
0.00455005
0.00454664
0.00452573
0.00443963
0.00425354
0.00448233
0.00451075
0.00453652
0.00455043
0.00455564
0.00455638
0.00455572
0.00455508
0.00455526
0.00455253
0.00452706
0.00442836
0.0045368
0.00454527
0.00455252
0.00455619
0.00455782
0.00455797
0.00455784
0.00455756
0.00455614
0.0045381
0.0043911
0.0039837
0.0045527
0.0045558
0.00455776
0.00455848
0.00455915
0.00455932
0.00455928
0.0045589
0.0045526
0.00447215
0.00397876
0.00296037
0.00455755
0.00455938
0.0045599
0.00455987
0.00456024
0.00456044
0.00456044
0.0045593
0.00453941
0.00432731
0.00326614
0.00152616
0.00441295
0.00450658
0.00454572
0.00455436
0.00455595
0.0045556
0.00455559
0.00455504
0.00455485
0.00454833
0.00452165
0.00446962
0.00395531
0.00434709
0.00451364
0.00455076
0.00455712
0.00455787
0.00455805
0.00455801
0.00455791
0.00455616
0.00454852
0.004535
0.00293097
0.00393323
0.00442746
0.00453887
0.00455689
0.00455923
0.00455953
0.00455959
0.00455939
0.00455901
0.00455701
0.00455356
0.00150369
0.00324575
0.00427768
0.0045185
0.00455544
0.00456014
0.00456067
0.00456081
0.00456051
0.0045605
0.00456002
0.004559
0.00455951
0.00456109
0.0045612
0.00456099
0.00456128
0.00456142
0.00456141
0.00455917
0.00452203
0.00416182
0.00248414
0.000330161
0.00456073
0.00456214
0.00456232
0.00456213
0.0045623
0.00456233
0.00456232
0.00455961
0.00451579
0.00410718
0.00233612
0.000274471
0.00456168
0.00456301
0.00456326
0.00456321
0.00456327
0.00456318
0.00456317
0.00456057
0.00451783
0.00411505
0.00235205
0.000275461
0.00456256
0.00456386
0.00456401
0.00456394
0.00456406
0.00456399
0.00456399
0.00456172
0.00452324
0.00414661
0.00241698
0.000285085
0.00456333
0.00456455
0.0045647
0.00456467
0.00456477
0.00456468
0.0045647
0.0045628
0.00452926
0.00418376
0.00249515
0.000297113
0.00455831
0.0045581
0.00455799
0.00455796
0.004558
0.00455794
0.00455797
0.00455645
0.00452763
0.00421316
0.00257164
0.000309344
0.00450632
0.00450153
0.00450063
0.00450039
0.00450031
0.0045003
0.00450037
0.00449922
0.0044747
0.00419206
0.00262434
0.000322765
0.00422518
0.00420491
0.00420131
0.00420047
0.00420002
0.00420011
0.00420029
0.00419985
0.00418044
0.00394561
0.0025673
0.000332944
0.00342431
0.00339905
0.00339376
0.00339217
0.00339109
0.00339145
0.00339164
0.00339231
0.00338023
0.00322584
0.00225245
0.000332463
0.0022067
0.0021931
0.00218836
0.00218659
0.00218622
0.00218713
0.00218721
0.00218905
0.00218454
0.00212161
0.00164616
0.000312238
0.000927422
0.000916857
0.000914541
0.000913274
0.000912872
0.000914311
0.000913525
0.000915533
0.000914416
0.00090226
0.000774923
0.000264078
9.48641e-05
9.41811e-05
9.38725e-05
9.36172e-05
9.33119e-05
9.31325e-05
9.28809e-05
9.27863e-05
9.26334e-05
9.21388e-05
8.67156e-05
6.20007e-05
0.000330177
0.00250355
0.00411531
0.00449758
0.00455397
0.00456097
0.00456169
0.00456185
0.00456162
0.00456168
0.00456158
0.00456104
0.000275053
0.00234594
0.00405849
0.00448981
0.00455393
0.00456182
0.00456262
0.00456267
0.00456262
0.00456279
0.0045627
0.00456221
0.000275729
0.00235211
0.00406421
0.00449227
0.00455509
0.00456267
0.00456344
0.00456344
0.00456339
0.00456354
0.00456355
0.00456314
0.000286366
0.00240903
0.00409523
0.00449941
0.00455683
0.00456355
0.00456418
0.00456416
0.00456417
0.00456434
0.00456432
0.00456398
0.00029772
0.00248058
0.00413315
0.00450771
0.00455864
0.00456435
0.00456488
0.00456484
0.00456486
0.00456494
0.00456497
0.00456469
0.000309992
0.00255301
0.00416462
0.00450858
0.00455318
0.00455796
0.00455841
0.00455844
0.00455844
0.00455837
0.00455835
0.00455817
0.000322068
0.00260448
0.004148
0.00445858
0.00449714
0.00450119
0.00450159
0.0045017
0.00450172
0.0045016
0.00450146
0.00450169
0.000332486
0.00255416
0.00391267
0.00417008
0.00420141
0.00420494
0.00420562
0.00420578
0.00420586
0.00420569
0.00420521
0.00420588
0.000333837
0.00224642
0.00320905
0.00337841
0.00339913
0.00340205
0.00340316
0.00340344
0.00340358
0.00340317
0.00340207
0.00340396
0.000316818
0.00164168
0.0021163
0.00218822
0.00219779
0.00219885
0.00220024
0.00220029
0.00220057
0.00219853
0.00219922
0.00219976
0.000268936
0.000779446
0.000902863
0.000918081
0.000921141
0.00092039
0.000922293
0.000921953
0.000922624
0.000920262
0.000921526
0.000921161
6.21018e-05
8.66715e-05
9.19769e-05
9.25537e-05
9.28906e-05
9.29888e-05
9.34068e-05
9.37477e-05
9.42085e-05
9.40847e-05
9.45208e-05
9.47212e-05
)
;

boundaryField
{
    rotor
    {
        type            nutkWallFunction;
        Cmu             0.09;
        kappa           0.41;
        E               9.8;
        value           nonuniform List<scalar> 
48
(
8.27841e-06
2.43767e-05
2.54962e-05
2.62548e-05
2.60317e-05
2.64267e-05
2.64311e-05
2.69931e-05
2.69455e-05
2.69262e-05
2.66765e-05
2.67605e-05
2.63572e-05
2.62931e-05
2.6578e-05
2.68652e-05
2.66681e-05
2.67044e-05
2.66404e-05
2.66916e-05
2.58883e-05
2.49512e-05
2.32239e-05
8.01595e-06
8.01595e-06
1.08942e-05
1.3075e-05
1.49332e-05
1.67693e-05
1.85132e-05
2.08757e-05
2.29664e-05
2.56559e-05
2.80466e-05
3.09324e-05
3.51738e-05
8.27841e-06
1.12938e-05
1.29779e-05
1.4661e-05
1.67153e-05
1.86943e-05
2.0561e-05
2.27872e-05
2.45031e-05
2.66449e-05
2.89424e-05
3.58063e-05
)
;
    }
    stator
    {
        type            nutkWallFunction;
        Cmu             0.09;
        kappa           0.41;
        E               9.8;
        value           nonuniform List<scalar> 
48
(
1.79252e-05
1.78705e-05
1.78405e-05
1.7816e-05
1.7785e-05
1.77584e-05
1.7728e-05
1.77038e-05
1.76852e-05
1.76478e-05
1.7216e-05
1.4753e-05
1.47816e-05
1.72154e-05
1.76329e-05
1.76766e-05
1.77052e-05
1.77177e-05
1.77671e-05
1.77941e-05
1.78217e-05
1.78403e-05
1.7869e-05
1.78672e-05
5.09184e-05
4.84048e-05
4.96008e-05
5.14175e-05
5.33158e-05
5.52565e-05
5.71959e-05
5.90582e-05
6.04464e-05
6.03968e-05
5.71168e-05
1.47816e-05
5.09186e-05
4.83082e-05
4.95254e-05
5.13248e-05
5.32535e-05
5.52024e-05
5.72046e-05
5.90586e-05
6.03496e-05
6.00971e-05
5.67344e-05
1.4753e-05
)
;
    }
    front
    {
        type            empty;
    }
    back
    {
        type            empty;
    }
    procBoundary3to1
    {
        type            processor;
        value           nonuniform List<scalar> 
20
(
0.00129141
0.00268598
0.00377879
0.00430091
0.00448135
0.00453663
0.00455273
0.00455762
0.00455958
0.00456078
0.00456178
0.00456264
0.00456345
0.00455842
0.00450644
0.00422527
0.00342461
0.00220663
0.000927911
9.54305e-05
)
;
    }
    procBoundary3to2
    {
        type            processor;
        value           nonuniform List<scalar> 
20
(
0.00089711
0.00237306
0.00363093
0.00425551
0.00446986
0.00453499
0.00455344
0.00455887
0.00456089
0.00456209
0.00456304
0.00456389
0.00456462
0.00455808
0.00450162
0.00420573
0.00340358
0.00219919
0.000920759
9.41953e-05
)
;
    }
}


// ************************************************************************* //
