/*--------------------------------*- C++ -*----------------------------------*\
  =========                 |
  \\      /  F ield         | OpenFOAM: The Open Source CFD Toolbox
   \\    /   O peration     | Website:  https://openfoam.org
    \\  /    A nd           | Version:  6
     \\/     M anipulation  |
\*---------------------------------------------------------------------------*/
FoamFile
{
    version     2.0;
    format      ascii;
    class       volVectorField;
    location    "1500";
    object      U;
}
// * * * * * * * * * * * * * * * * * * * * * * * * * * * * * * * * * * * * * //

dimensions      [0 1 -1 0 0 0 0];

internalField   nonuniform List<vector> 
768
(
(-1.50157 0.27878 -1.04368e-20)
(-1.61984 0.271247 0)
(-1.50334 0.32428 0)
(-1.35567 0.379904 -4.15444e-18)
(-1.26339 0.434003 5.81854e-18)
(-1.20245 0.491464 0)
(-1.14022 0.54891 0)
(-1.08792 0.612443 2.69947e-18)
(-1.02993 0.675013 3.01221e-18)
(-0.972646 0.736751 9.88612e-18)
(-0.909234 0.793666 1.84502e-17)
(-0.851136 0.854668 -3.25266e-18)
(-1.06386 0.32361 -4.22288e-19)
(-0.96884 0.216576 0)
(-0.754133 0.165033 0)
(-0.612822 0.154855 -4.06405e-19)
(-0.539154 0.161541 9.38069e-19)
(-0.49512 0.175026 -3.03333e-18)
(-0.462498 0.192959 2.08384e-18)
(-0.435046 0.213581 6.15542e-19)
(-0.409241 0.236262 -1.37586e-18)
(-0.38408 0.259648 3.83799e-21)
(-0.358905 0.283836 0)
(-0.334172 0.308144 -3.5775e-18)
(-0.901295 0.301697 3.12386e-19)
(-0.727093 0.132008 0)
(-0.500613 0.0840214 0)
(-0.383877 0.0759905 1.40597e-20)
(-0.32868 0.0804896 -1.03605e-20)
(-0.297059 0.0893552 -4.48429e-19)
(-0.274407 0.100499 0)
(-0.255505 0.113065 -1.83132e-18)
(-0.238233 0.126763 1.89509e-18)
(-0.221802 0.141137 -7.24042e-19)
(-0.205752 0.156048 -1.64945e-18)
(-0.189997 0.171195 2.50755e-18)
(-0.916557 0.196701 -2.4068e-19)
(-0.692672 0.0522415 2.12925e-19)
(-0.449232 0.0339894 0)
(-0.337387 0.0380309 1.65015e-19)
(-0.286996 0.0478451 -1.64219e-19)
(-0.258087 0.0591967 3.69548e-19)
(-0.236731 0.0714363 0)
(-0.218581 0.0840439 -4.84538e-19)
(-0.201933 0.0972553 -1.68264e-18)
(-0.186311 0.110705 1.14086e-18)
(-0.171196 0.12456 1.36746e-18)
(-0.156571 0.138494 -2.79404e-18)
(-1.02024 0.0591559 2.82445e-19)
(-0.710319 -0.0348086 -2.00221e-19)
(-0.444872 -0.0124247 1.95415e-19)
(-0.332057 0.007216 0)
(-0.282125 0.0235353 -6.54114e-19)
(-0.25267 0.0388498 6.82656e-19)
(-0.230383 0.0535568 4.17921e-19)
(-0.211055 0.0682986 4.70945e-19)
(-0.193473 0.0828743 0)
(-0.176915 0.097591 0)
(-0.161191 0.112189 0)
(-0.145841 0.126945 -5.90643e-21)
(-1.07955 -0.163114 4.64428e-19)
(-0.723832 -0.135023 0)
(-0.446967 -0.0621434 -1.86242e-19)
(-0.333204 -0.0246339 3.00966e-19)
(-0.282383 -0.000656145 2.81894e-19)
(-0.25166 0.0189909 -8.20663e-19)
(-0.227996 0.0369189 3.635e-19)
(-0.20745 0.0541416 -1.99947e-18)
(-0.188826 0.070775 -1.12552e-19)
(-0.171415 0.0870595 -6.2532e-20)
(-0.154872 0.102959 -4.63193e-20)
(-0.138772 0.118712 4.14736e-18)
(-1.10954 -0.41286 -9.03935e-19)
(-0.729379 -0.24869 3.56745e-19)
(-0.445588 -0.116716 -3.81738e-19)
(-0.331152 -0.0594892 -2.93924e-19)
(-0.279573 -0.0267251 -6.78759e-19)
(-0.247718 -0.00224047 -4.33476e-19)
(-0.222952 0.0194657 -9.36003e-19)
(-0.201749 0.0393627 1.91501e-18)
(-0.182511 0.0583324 0)
(-0.164752 0.0761683 2.42262e-18)
(-0.147673 0.0934702 -3.98963e-18)
(-0.131166 0.110049 1.41555e-18)
(-1.10768 -0.692823 -6.02233e-19)
(-0.724099 -0.373773 -5.87971e-19)
(-0.437766 -0.176866 5.33174e-19)
(-0.323483 -0.0967983 0)
(-0.27125 -0.0544389 -3.61723e-19)
(-0.238717 -0.0240807 7.77744e-19)
(-0.213789 0.00147899 3.41073e-20)
(-0.192575 0.024481 1.08819e-19)
(-0.173602 0.0455011 -1.07707e-18)
(-0.155927 0.0650465 -2.46089e-18)
(-0.139008 0.0833193 1.32005e-18)
(-0.122289 0.100734 -1.4666e-18)
(-1.02704 -0.962406 4.19638e-19)
(-0.702755 -0.510902 0)
(-0.419856 -0.242099 0)
(-0.307389 -0.136019 0)
(-0.25592 -0.0821865 3.58066e-19)
(-0.224133 -0.0454432 0)
(-0.200202 -0.0156445 -7.44376e-20)
(-0.180113 0.0102185 2.1114e-18)
(-0.16214 0.0332395 6.34287e-20)
(-0.145301 0.0540724 1.23572e-18)
(-0.12896 0.0731668 -1.37828e-18)
(-0.112593 0.0909484 4.22759e-18)
(-0.805197 -1.15942 -9.09999e-20)
(-0.642605 -0.650069 1.03046e-18)
(-0.384052 -0.309173 -1.97259e-19)
(-0.279973 -0.174383 0)
(-0.232444 -0.108071 0)
(-0.203787 -0.0646317 0)
(-0.182596 -0.0308098 0)
(-0.164845 -0.00244631 1.13344e-18)
(-0.14874 0.022146 -4.6778e-18)
(-0.133358 0.0438906 -2.54001e-18)
(-0.118097 0.0634287 2.69271e-18)
(-0.102479 0.0812449 1.46899e-18)
(-0.435049 -1.2051 -8.73465e-19)
(-0.498654 -0.759005 -7.23153e-19)
(-0.315945 -0.36372 -3.30565e-19)
(-0.236367 -0.205916 0)
(-0.200037 -0.12887 0)
(-0.178201 -0.0797949 9.94008e-19)
(-0.161818 -0.0428859 -2.14947e-18)
(-0.14759 -0.0128021 4.52139e-18)
(-0.134107 0.0127292 3.62648e-18)
(-0.120689 0.0349004 2.51723e-18)
(-0.106893 0.0544801 -2.66775e-18)
(-0.092369 0.0719781 1.0681e-20)
(0.106732 -0.988074 -3.62368e-19)
(-0.208364 -0.694588 0)
(-0.200094 -0.370702 5.05615e-19)
(-0.17445 -0.21979 -1.50177e-18)
(-0.159579 -0.140325 1.45817e-18)
(-0.148873 -0.0890632 6.70365e-20)
(-0.139174 -0.0509784 1.05533e-18)
(-0.129346 -0.0203761 -1.07531e-18)
(-0.11897 0.00528088 -6.02922e-18)
(-0.107835 0.027339 0)
(-0.0957901 0.0465697 0)
(-0.0826117 0.0634501 9.54603e-21)
(-0.788484 0.911893 -4.19265e-18)
(-0.728322 0.971773 -8.94446e-18)
(-0.66439 1.02841 -2.43453e-17)
(-0.602837 1.09016 4.04193e-17)
(-0.536527 1.14484 -1.56325e-17)
(-0.47047 1.19573 5.71235e-18)
(-0.403324 1.241 -1.22905e-17)
(-0.337756 1.29036 2.57311e-17)
(-0.267021 1.33985 -1.04579e-17)
(-0.21981 1.4763 -2.05754e-20)
(-0.222473 1.53946 0)
(-0.254078 1.24879 0)
(-0.309191 0.332676 7.8469e-18)
(-0.284443 0.357099 -1.93555e-18)
(-0.259467 0.381649 -1.3161e-20)
(-0.235076 0.406273 0)
(-0.210828 0.430907 -2.46976e-18)
(-0.187578 0.45534 0)
(-0.166104 0.480993 -1.41604e-18)
(-0.148881 0.513135 2.82649e-18)
(-0.139842 0.56967 0)
(-0.153981 0.692983 3.54749e-18)
(-0.215744 0.898521 -4.45382e-18)
(-0.320437 1.01425 1.18846e-18)
(-0.174373 0.186573 9.92425e-19)
(-0.158948 0.202061 -2.90918e-18)
(-0.143672 0.217768 1.05343e-18)
(-0.128811 0.233738 0)
(-0.114425 0.250262 1.18275e-18)
(-0.10084 0.26759 2.58144e-18)
(-0.0883398 0.286828 -3.2488e-18)
(-0.0778035 0.311662 1.47306e-18)
(-0.0719069 0.355608 -8.22194e-19)
(-0.0785897 0.457351 0)
(-0.119099 0.671244 0)
(-0.258271 0.90176 -1.34247e-18)
(-0.142104 0.152722 -1.58851e-18)
(-0.127928 0.167045 1.58616e-18)
(-0.113812 0.181762 1.80854e-18)
(-0.100018 0.196854 -8.20767e-19)
(-0.0864072 0.212761 -1.92042e-18)
(-0.0732993 0.229653 0)
(-0.0604721 0.248422 -2.94439e-20)
(-0.0484431 0.271787 2.40463e-18)
(-0.038051 0.311346 -2.13231e-18)
(-0.0329698 0.405697 1.1672e-18)
(-0.0424246 0.616854 7.38456e-20)
(-0.0939451 0.835095 -4.56316e-18)
(-0.130874 0.141668 1.54726e-18)
(-0.115917 0.156699 -7.48152e-19)
(-0.101093 0.171955 1.75933e-18)
(-0.0861084 0.187908 -8.53382e-19)
(-0.0712538 0.204684 0)
(-0.0561622 0.222781 0)
(-0.041255 0.242806 -1.07773e-18)
(-0.0259477 0.267251 -2.36009e-18)
(-0.0101292 0.306348 1.35029e-18)
(0.00839882 0.400011 1.08188e-18)
(0.037843 0.623095 -2.68387e-18)
(0.0422111 0.903909 0)
(-0.122938 0.134336 5.01729e-20)
(-0.107016 0.150104 -3.15732e-18)
(-0.0909274 0.166149 0)
(-0.074442 0.182876 1.86737e-18)
(-0.0575539 0.200585 -1.86778e-18)
(-0.0401381 0.21987 0)
(-0.0222525 0.241384 3.67292e-20)
(-0.00318876 0.267248 3.38004e-20)
(0.0188616 0.307087 0)
(0.0527532 0.39931 -2.05151e-18)
(0.123093 0.633334 2.53898e-18)
(0.219401 0.978744 -6.40998e-18)
(-0.11455 0.126495 -1.51169e-18)
(-0.0978491 0.142701 4.77709e-18)
(-0.0804303 0.159267 0)
(-0.0624452 0.176293 -1.86127e-18)
(-0.0433451 0.194531 1.86131e-18)
(-0.0233961 0.214331 2.07801e-18)
(-0.00198331 0.236841 -2.02434e-18)
(0.0213233 0.263909 -1.11384e-18)
(0.0504519 0.303891 0)
(0.0988673 0.395209 -9.50741e-19)
(0.209378 0.630068 2.32153e-18)
(0.414728 0.974823 0)
(-0.105438 0.117478 3.02535e-18)
(-0.0879849 0.13395 -3.16654e-18)
(-0.0696575 0.150393 3.43604e-18)
(-0.0500877 0.167323 -3.58672e-18)
(-0.0290781 0.185209 -9.90922e-20)
(-0.00626109 0.204874 1.94024e-18)
(0.0186709 0.227253 2.11879e-18)
(0.0470263 0.254589 0)
(0.0833128 0.294977 -1.25371e-18)
(0.147753 0.383047 3.6339e-18)
(0.297745 0.613649 -2.14624e-18)
(0.60081 0.945597 0)
(-0.0957626 0.107763 1.54959e-18)
(-0.0780156 0.123945 3.80065e-20)
(-0.058965 0.139879 -1.68474e-18)
(-0.0382707 0.155978 0)
(-0.01549 0.172861 0)
(0.00979875 0.191259 0)
(0.0384251 0.212396 0)
(0.071868 0.238567 -2.13224e-18)
(0.116335 0.276939 1.23175e-18)
(0.197034 0.360759 -5.07082e-20)
(0.387083 0.582147 0)
(0.764664 0.857988 0)
(-0.0860558 0.0977335 -1.45749e-18)
(-0.0683546 0.113256 -4.71317e-18)
(-0.0490099 0.128183 0)
(-0.0275751 0.142934 1.65939e-18)
(-0.00358252 0.158023 3.55051e-18)
(0.023756 0.174169 0)
(0.0555269 0.192481 0)
(0.0940438 0.215301 1.13759e-18)
(0.146681 0.249519 -3.37552e-18)
(0.244096 0.32211 -6.14738e-20)
(0.476768 0.523559 0)
(0.929856 0.74319 0)
(-0.076686 0.0878017 -1.44382e-18)
(-0.0593991 0.102327 -1.4944e-18)
(-0.0401506 0.115891 3.2139e-18)
(-0.0185055 0.12886 -5.111e-18)
(0.00608358 0.141568 1.62626e-18)
(0.0346201 0.154538 3.58093e-18)
(0.0685594 0.168545 -8.96382e-19)
(0.111037 0.18539 1.04877e-18)
(0.170647 0.210176 2.20494e-18)
(0.280915 0.263828 -2.78992e-18)
(0.54808 0.412953 -1.43677e-18)
(1.03653 0.598614 0)
(-0.0679596 0.0783042 4.83682e-21)
(-0.0513991 0.0915617 3.05168e-18)
(-0.0326206 0.103538 -3.17777e-18)
(-0.0112939 0.114451 0)
(0.013185 0.124453 -3.42519e-18)
(0.0418138 0.133651 -5.23334e-18)
(0.0763755 0.142154 5.96982e-20)
(0.120311 0.150448 0)
(0.182353 0.160885 0)
(0.293377 0.181982 6.97425e-19)
(0.571321 0.248255 5.34332e-20)
(1.46749 0.304418 1.2875e-18)
(0.571141 -0.30706 -5.10475e-20)
(0.119415 -0.465274 1.81436e-19)
(-0.0624124 -0.319205 0)
(-0.104495 -0.209074 9.51065e-19)
(-0.116671 -0.139531 -4.53778e-19)
(-0.118905 -0.091415 -1.55158e-18)
(-0.116464 -0.0547569 -1.14334e-18)
(-0.111239 -0.0250689 1.14341e-18)
(-0.104048 -0.000120815 2.42123e-18)
(-0.0952715 0.0212878 2.57451e-18)
(-0.0850891 0.0398238 -2.67504e-18)
(-0.0734687 0.0558376 -2.76642e-18)
(0.403441 -0.179265 7.51825e-27)
(0.160715 -0.30201 7.03085e-19)
(0.00872579 -0.246809 1.17411e-18)
(-0.0537544 -0.180812 0)
(-0.0806291 -0.128548 1.10568e-18)
(-0.0920358 -0.0877459 0)
(-0.0954639 -0.054734 1.1657e-18)
(-0.0942228 -0.0271763 4.33936e-20)
(-0.0899147 -0.0036452 -3.69595e-18)
(-0.0833715 0.0166912 -2.53611e-18)
(-0.0750579 0.0342932 2.63394e-18)
(-0.0651238 0.0493089 2.74022e-18)
(0.268683 -0.0929443 1.82926e-19)
(0.143101 -0.194374 -1.53965e-18)
(0.0370697 -0.184693 -1.97741e-18)
(-0.0222024 -0.149323 -5.58234e-19)
(-0.0536872 -0.112924 -3.37239e-18)
(-0.0698679 -0.080364 1.72463e-18)
(-0.0771525 -0.0519851 -3.09627e-20)
(-0.0788885 -0.0272501 1.1814e-18)
(-0.0769323 -0.00559457 -4.19049e-20)
(-0.0723564 0.013404 0)
(-0.0658016 0.0299598 0)
(-0.0576853 0.0439875 6.27535e-21)
(0.187133 -0.0532017 1.75067e-19)
(0.117699 -0.128695 5.97766e-19)
(0.0452375 -0.137644 1.13298e-18)
(-0.00439891 -0.120696 -1.16682e-18)
(-0.0348693 -0.0963488 4.56613e-18)
(-0.0525619 -0.0712296 -2.27309e-18)
(-0.0618573 -0.0475309 0)
(-0.0655207 -0.0258527 2.4287e-18)
(-0.0652982 -0.00627028 2.44509e-18)
(-0.0623069 0.0112745 0)
(-0.0573807 0.0268234 0)
(-0.0512646 0.040189 -7.99883e-18)
(-0.0601119 0.069492 2.87928e-18)
(-0.044498 0.0812856 -2.97253e-18)
(-0.0265008 0.0915522 -4.63296e-18)
(-0.00593639 0.100352 -4.7953e-20)
(0.0177144 0.107613 3.19459e-18)
(0.0453202 0.112981 8.39726e-18)
(0.0785209 0.115762 1.75807e-18)
(0.120195 0.114533 -1.74382e-18)
(0.177127 0.106564 0)
(0.269077 0.0839395 6.52359e-20)
(0.455002 0.0128115 0)
(0.901597 -0.407541 -5.26483e-19)
(-0.0532985 0.0615067 0)
(-0.0387494 0.0716983 1.72424e-20)
(-0.0217415 0.0802287 3.02089e-18)
(-0.00226321 0.0870402 -4.62698e-18)
(0.0199854 0.0918061 -4.76613e-18)
(0.0456574 0.0938627 -3.27699e-18)
(0.0758071 0.0919127 4.09615e-18)
(0.112114 0.083555 2.53906e-18)
(0.157562 0.064149 -1.68536e-18)
(0.218488 0.022486 9.26693e-19)
(0.302476 -0.0736938 0)
(0.327882 -0.357151 0)
(-0.0476828 0.0544471 -2.7808e-18)
(-0.0341551 0.0628817 1.41898e-18)
(-0.0181857 0.0697314 -1.46906e-18)
(1.23171e-05 0.0747748 1.50308e-18)
(0.0205318 0.0774724 4.5982e-18)
(0.0437296 0.0769776 0)
(0.070031 0.0717715 -8.018e-20)
(0.0999042 0.0593388 -1.62992e-18)
(0.133435 0.0352457 5.77599e-20)
(0.169601 -0.0089011 -1.60998e-18)
(0.1994 -0.0914955 2.0751e-19)
(0.162319 -0.24279 -2.23886e-19)
(-0.0435242 0.0483927 -2.73594e-18)
(-0.0306438 0.0548093 0)
(-0.0155899 0.060056 2.86537e-18)
(0.00127504 0.0635817 -4.35893e-18)
(0.0199519 0.0646707 1.46641e-18)
(0.0404931 0.0623713 0)
(0.0628733 0.0552307 -6.5924e-20)
(0.0866679 0.0410496 3.03297e-18)
(0.110422 0.0165081 1.56478e-18)
(0.13029 -0.023503 5.0066e-20)
(0.135594 -0.0864361 0)
(0.091618 -0.171372 3.67886e-19)
(0.135566 -0.0360244 3.37849e-19)
(0.0932584 -0.0898633 0)
(0.0430084 -0.103661 1.20596e-18)
(0.00376244 -0.0963521 1.14404e-18)
(-0.023019 -0.080197 -2.28539e-18)
(-0.0399454 -0.0610827 1.19017e-18)
(-0.0496719 -0.0416153 2.37445e-18)
(-0.0542189 -0.0229227 2.42172e-20)
(-0.0550271 -0.00543922 1.25403e-18)
(-0.0531795 0.0106566 -3.76933e-18)
(-0.0497153 0.025421 -1.27053e-18)
(-0.0461689 0.0389924 5.32793e-18)
(0.10238 -0.0239244 -4.90402e-19)
(0.0756807 -0.0640978 -1.5892e-19)
(0.0399989 -0.0790913 -1.18165e-18)
(0.00892079 -0.0774577 0)
(-0.0141648 -0.0670071 -2.95708e-18)
(-0.0298327 -0.0525212 -1.7363e-18)
(-0.0394816 -0.0365744 4.30263e-20)
(-0.0444826 -0.0204788 1.21e-18)
(-0.0459743 -0.00484424 -3.63395e-18)
(-0.0449889 0.0100879 4.95342e-18)
(-0.0430668 0.0249721 0)
(-0.0436443 0.0415293 5.69813e-18)
(0.079938 -0.0167254 -8.00981e-19)
(0.0623374 -0.0471457 1.57445e-19)
(0.0364054 -0.0612882 0)
(0.0118005 -0.0625853 -2.38681e-18)
(-0.00782547 -0.0559326 2.91348e-18)
(-0.021925 -0.0449435 2.96148e-18)
(-0.0310815 -0.0318946 -3.52466e-18)
(-0.036133 -0.0180658 -4.8017e-18)
(-0.0379215 -0.00409691 -4.85916e-18)
(-0.0374188 0.00993548 6.23557e-18)
(-0.0369782 0.0262845 -1.37334e-18)
(-0.0437034 0.0513143 -1.4665e-17)
(0.0641459 -0.0121989 1.10822e-18)
(0.0520491 -0.0356216 1.55577e-19)
(0.0327636 -0.0481369 0)
(0.01317 -0.0508567 2.9297e-18)
(-0.00335127 -0.0467054 -2.28672e-21)
(-0.0157943 -0.038345 -5.53011e-19)
(-0.0242055 -0.0276639 0)
(-0.0290084 -0.0158308 1.14241e-18)
(-0.0307333 -0.00345018 3.58323e-18)
(-0.0301248 0.00957948 2.35792e-20)
(-0.0298078 0.0280682 6.54204e-18)
(-0.0401675 0.0699172 2.55472e-17)
(-0.041454 0.0439076 5.47769e-18)
(-0.0278985 0.0476464 1.3868e-18)
(-0.0132936 0.0513143 -1.37969e-18)
(0.00240781 0.0535514 2.84106e-18)
(0.0193336 0.0533679 0)
(0.0373561 0.0497623 4.33794e-18)
(0.0561372 0.0414518 -6.5846e-18)
(0.0747251 0.0266951 -3.71289e-18)
(0.0910037 0.00330609 0)
(0.100523 -0.0311128 1.48582e-18)
(0.0941738 -0.0778283 0)
(0.0536854 -0.127768 -3.52427e-19)
(-0.0440044 0.0414845 0)
(-0.0272436 0.0411669 0)
(-0.0123619 0.0432563 0)
(0.00231087 0.044591 -1.38394e-18)
(0.0175128 0.0436737 -1.44971e-20)
(0.0331445 0.0395026 -1.43017e-18)
(0.0487073 0.0310147 2.85039e-18)
(0.0630893 0.0169816 -2.81499e-18)
(0.0741063 -0.003834 0)
(0.0778636 -0.0321308 1.04481e-18)
(0.0679002 -0.0664681 5.17714e-19)
(0.034764 -0.0977736 -1.69742e-19)
(-0.0540571 0.0413999 0)
(-0.0284038 0.0350784 4.43364e-18)
(-0.0119637 0.0358429 -1.56489e-20)
(0.00190174 0.0366994 -1.36575e-20)
(0.0155204 0.0354666 1.34611e-18)
(0.0290188 0.0311831 1.34538e-18)
(0.0418731 0.023031 2.04964e-18)
(0.0529812 0.0102276 1.39332e-18)
(0.0603648 -0.0077764 6.84272e-19)
(0.0609235 -0.0307099 -1.36657e-18)
(0.0502914 -0.0562123 -6.61346e-19)
(0.023925 -0.0769379 0)
(-0.073404 0.036664 3.37608e-18)
(-0.0299366 0.0277186 -1.72717e-18)
(-0.0113535 0.0286549 0)
(0.00156394 0.0296512 0)
(0.0136417 0.0284705 -1.32023e-18)
(0.0252299 0.0243759 -1.44478e-20)
(0.0358361 0.0168403 -3.96668e-18)
(0.0444301 0.00543863 0)
(0.0493395 -0.00991162 -2.63057e-18)
(0.0481888 -0.0284493 0)
(0.0381733 -0.0477038 -6.34552e-19)
(0.017264 -0.0620692 0)
(0.0526662 -0.00921105 -3.09598e-19)
(0.0440213 -0.0275263 -3.00094e-19)
(0.0293683 -0.0383214 3.00097e-19)
(0.0136729 -0.0415892 0)
(-0.000186314 -0.0390706 -2.92696e-18)
(-0.0110326 -0.0326838 -1.73016e-18)
(-0.0185909 -0.0239388 5.85384e-18)
(-0.0229736 -0.0138872 3.49806e-18)
(-0.0243823 -0.0031608 0)
(-0.0231223 0.00813483 1.69745e-20)
(-0.0199314 0.0253467 -8.05061e-18)
(-0.00634497 0.0735675 -3.22327e-17)
(0.0440955 -0.00714114 -6.10491e-19)
(0.037717 -0.0216803 -2.96594e-19)
(0.0263641 -0.0308646 -2.06533e-18)
(0.0136803 -0.0342369 5.79827e-19)
(0.00205852 -0.0327875 1.71913e-18)
(-0.00732735 -0.0278819 -5.78448e-18)
(-0.0140283 -0.0207259 -3.44057e-18)
(-0.0179424 -0.0122535 0)
(-0.0190417 -0.00313382 0)
(-0.0173913 0.00628849 -3.81778e-18)
(-0.0131401 0.0209086 -2.15816e-18)
(0.00718801 0.058565 -5.18419e-17)
(0.0375613 -0.00565071 1.50925e-19)
(0.0327205 -0.0173502 1.3295e-18)
(0.0237664 -0.0251359 2.31574e-18)
(0.0134286 -0.0283797 0)
(0.00366647 -0.0276163 -1.7242e-18)
(-0.00442938 -0.0238333 7.40607e-18)
(-0.0103307 -0.0179768 -3.43389e-18)
(-0.0138066 -0.0108827 0)
(-0.0147086 -0.00323148 0)
(-0.0130703 0.00443057 0)
(-0.00923687 0.0152708 0)
(0.00580875 0.0404715 5.14854e-17)
(0.0324878 -0.00454018 0)
(0.0287298 -0.0140719 -8.6951e-19)
(0.0215548 -0.0206748 -2.88273e-19)
(0.0130532 -0.0236915 5.66277e-19)
(0.00482384 -0.0233637 1.12013e-18)
(-0.00216297 -0.0204385 -5.04803e-18)
(-0.00734469 -0.0156364 1.09884e-18)
(-0.0104437 -0.00973008 0)
(-0.0112423 -0.00335407 -4.54837e-18)
(-0.0097932 0.00280339 3.67193e-18)
(-0.00659035 0.0105818 -6.07798e-18)
(0.00263084 0.0260011 -4.94394e-17)
(0.0284982 -0.00369076 4.34306e-19)
(0.0255184 -0.0115458 1.43497e-19)
(0.0196804 -0.0171704 0)
(0.0126307 -0.0199266 -5.58482e-19)
(0.00566621 -0.0198544 -3.35211e-18)
(-0.000376684 -0.0175916 -5.56002e-19)
(-0.00493312 -0.0136405 -2.19141e-20)
(-0.00771844 -0.0087397 -4.44453e-18)
(-0.00848167 -0.00344761 3.33885e-18)
(-0.00731006 0.00149898 -3.57368e-18)
(-0.00476502 0.00706737 7.70494e-18)
(0.000556092 0.01627 -3.26848e-20)
(0.0253618 -0.00302786 -7.07526e-19)
(0.022956 -0.00957663 4.20074e-19)
(0.018134 -0.0144023 -2.79131e-19)
(0.0122415 -0.0169104 5.50306e-19)
(0.00631242 -0.0169594 4.3772e-18)
(0.00103984 -0.0152211 5.45025e-19)
(-0.00297818 -0.0119358 3.26473e-18)
(-0.00552524 -0.0078884 7.63952e-18)
(-0.00628695 -0.00348126 1.09626e-18)
(-0.00541957 0.000490982 0)
(-0.00347373 0.00453697 0)
(-0.000679685 0.00985713 4.50865e-17)
(0.0231037 -0.0025082 4.18617e-27)
(0.0211177 -0.00805382 -8.33822e-19)
(0.0170405 -0.0122555 -2.4801e-18)
(0.0120545 -0.0145249 0)
(0.00691733 -0.0146407 0)
(0.00224055 -0.0132887 -1.0835e-18)
(-0.0013704 -0.0105252 1.08347e-18)
(-0.00375968 -0.00716111 -8.64912e-18)
(-0.00455774 -0.00346162 -5.42786e-18)
(-0.00399869 -0.000239561 2.28677e-18)
(-0.00255328 0.00274722 1.23432e-17)
(-0.00130622 0.00557407 8.61879e-17)
(0.0222458 -0.00213356 4.32062e-19)
(0.020532 -0.00698066 1.57239e-18)
(0.0169249 -0.0107235 4.26344e-18)
(0.0125207 -0.0128438 -4.53177e-18)
(0.00785915 -0.0129449 -3.94794e-18)
(0.00348574 -0.0118916 -1.68283e-18)
(7.78128e-05 -0.00945673 1.12073e-18)
(-0.00231551 -0.00661014 4.46462e-18)
(-0.00321325 -0.00339582 1.34409e-17)
(-0.00296082 -0.000733021 9.39569e-18)
(-0.00190403 0.00154749 1.31707e-20)
(-0.00155519 0.00278565 5.91591e-20)
(0.0242708 -0.00195726 -6.7428e-19)
(0.0226333 -0.00650227 -1.34812e-18)
(0.0190431 -0.0100692 -2.67934e-18)
(0.0147699 -0.0120345 1.00076e-17)
(0.00996432 -0.0123013 5.30828e-18)
(0.00542852 -0.0112236 6.63072e-19)
(0.00171096 -0.00907355 -5.28253e-18)
(-0.000945947 -0.0063209 0)
(-0.00218702 -0.00344239 1.40302e-20)
(-0.00223323 -0.000987769 -2.19395e-17)
(-0.00151395 0.000770741 -1.74662e-17)
(-0.00145908 0.00119156 1.03536e-17)
(0.0325955 -0.00208597 0)
(0.0306794 -0.00698086 2.58225e-18)
(0.0264378 -0.0107611 -4.63766e-18)
(0.0213538 -0.0127113 -8.19827e-18)
(0.0152981 -0.0133508 -7.15177e-18)
(0.00956276 -0.0119162 -3.05136e-18)
(0.00450638 -0.00986824 -2.87222e-21)
(0.000921427 -0.00666359 -1.41716e-17)
(-0.00121905 -0.00380055 -3.4392e-17)
(-0.00166722 -0.00113707 1.86804e-17)
(-0.00130651 0.000347072 0)
(-0.0010607 0.000472301 -1.77633e-16)
(0.0542173 -0.00264305 0)
(0.0513059 -0.00888615 -8.18333e-18)
(0.0450988 -0.0133525 8.1529e-18)
(0.0375197 -0.0159037 -2.31583e-18)
(0.0282454 -0.0168852 3.92744e-17)
(0.0190904 -0.0150346 1.84235e-17)
(0.0108023 -0.0124366 1.83582e-17)
(0.00462175 -0.00827917 3.66492e-17)
(0.000576355 -0.00471392 3.65895e-17)
(-0.000866769 -0.00143678 0)
(-0.000968694 0.00011442 0)
(-0.000582876 0.000307379 1.20059e-16)
(0.0946296 -0.00352601 -8.91532e-18)
(0.0899912 -0.011791 7.37504e-17)
(0.0801834 -0.0176435 3.0387e-17)
(0.0681776 -0.0212751 7.04246e-17)
(0.0532525 -0.0229041 -7.15622e-17)
(0.0380452 -0.0205709 -1.80199e-17)
(0.024077 -0.0172189 1.80242e-17)
(0.013257 -0.0117246 -1.79736e-17)
(0.00580644 -0.00720881 1.79832e-17)
(0.00246883 -0.00314847 0)
(0.00109112 -0.00125769 0)
(0.000712185 -0.000350028 2.66915e-16)
(-0.0765494 0.00124709 0)
(-0.0268931 0.017915 -1.05837e-17)
(-0.0096157 0.0217845 1.37795e-18)
(0.00155856 0.0234426 0)
(0.0120131 0.0225457 0)
(0.0218797 0.0188062 1.28822e-18)
(0.0306179 0.0120003 1.9471e-18)
(0.0372932 0.00199005 -6.44373e-19)
(0.0405183 -0.0110132 2.57983e-18)
(0.0385374 -0.0260443 0)
(0.0295756 -0.0408143 1.25837e-18)
(0.0129369 -0.0511708 3.057e-19)
(-0.0610239 -0.0116754 0)
(-0.0221481 0.0114704 0)
(-0.00749554 0.0162516 -5.47167e-18)
(0.00178944 0.0182446 0)
(0.0106507 0.0176011 -1.25343e-18)
(0.0189818 0.0142632 2.50602e-18)
(0.0261683 0.00820405 -6.25508e-18)
(0.031376 -0.000508738 -6.24737e-19)
(0.0334645 -0.0115017 6.24748e-19)
(0.0311492 -0.0237545 2.46323e-18)
(0.0233437 -0.0352965 0)
(0.00998357 -0.0430017 -2.99746e-19)
(-0.0429426 -0.00936937 0)
(-0.0163282 0.00789812 -2.2231e-18)
(-0.00541279 0.0121404 8.03065e-18)
(0.00209996 0.0140563 -1.23025e-18)
(0.00950995 0.0135455 0)
(0.0164946 0.0105718 -3.65507e-18)
(0.0223958 0.00521154 8.55596e-18)
(0.0264774 -0.00234815 0)
(0.0277953 -0.0116492 0)
(0.0254312 -0.0217152 -2.11613e-18)
(0.0187134 -0.0308558 8.87084e-19)
(0.00789032 -0.0367516 2.92044e-19)
(-0.0284867 -0.00566431 0)
(-0.011498 0.00552669 0)
(-0.00362182 0.00904297 -5.19781e-18)
(0.00239745 0.0107164 1.20371e-18)
(0.00853825 0.0102419 -1.19257e-18)
(0.0143681 0.00758573 1.07347e-17)
(0.0192041 0.00284998 -1.21587e-18)
(0.0224242 -0.00370015 2.96356e-18)
(0.0232203 -0.011599 -2.95183e-18)
(0.02096 -0.0199287 2.34112e-18)
(0.0152146 -0.0272934 -1.16293e-18)
(0.00635307 -0.0318991 -2.86321e-19)
(-0.0185367 -0.00303928 0)
(-0.00785491 0.00394221 8.08875e-18)
(-0.00218124 0.00671532 5.05528e-18)
(0.00262363 0.00807031 0)
(0.00769336 0.00757218 -3.49185e-18)
(0.0125408 0.00516959 -6.99629e-18)
(0.0165021 0.000973273 -7.56053e-18)
(0.0190612 -0.0047186 1.72274e-18)
(0.019502 -0.0114574 2.313e-18)
(0.0174342 -0.0184155 -2.29535e-18)
(0.0125225 -0.0243999 0)
(0.0051946 -0.0280787 0)
(-0.0117907 -0.0013028 0)
(-0.00519857 0.00285858 -7.70642e-18)
(-0.00108784 0.00494691 1.22691e-18)
(0.00277263 0.00598239 -1.14868e-18)
(0.00693431 0.00541215 4.56619e-18)
(0.0109829 0.00322562 1.13696e-18)
(0.0142077 -0.000532747 3.41525e-18)
(0.0162848 -0.00549362 -9.62237e-18)
(0.0164665 -0.0113037 5.64617e-19)
(0.0146467 -0.0171647 -2.78307e-19)
(0.0104325 -0.0221043 2.78311e-19)
(0.00430297 -0.025084 0)
(-0.00714917 -0.00020325 0)
(-0.00330922 0.00212756 -1.47487e-17)
(-0.000293475 0.00362292 0)
(0.00283738 0.00435921 -4.51878e-18)
(0.00626998 0.00368243 3.36484e-18)
(0.00967948 0.00163886 6.71568e-18)
(0.0123286 -0.0017944 -5.61135e-19)
(0.0140464 -0.00619901 3.90449e-18)
(0.0140722 -0.0112944 0)
(0.0124831 -0.0163454 -2.73939e-19)
(0.00883394 -0.0204604 2.73942e-19)
(0.00360464 -0.0229424 0)
(-0.00409524 0.000370432 0)
(-0.00201761 0.0016486 -1.81483e-18)
(0.000224103 0.00265959 1.22867e-18)
(0.00285757 0.00313234 -4.63941e-18)
(0.00573408 0.00227494 -9.23876e-18)
(0.00872813 0.000263169 -3.46172e-18)
(0.0109253 -0.00306388 -1.15012e-18)
(0.0124566 -0.00715822 -5.14174e-18)
(0.012336 -0.0118739 5.70687e-19)
(0.0109782 -0.0164272 -2.54067e-18)
(0.00767404 -0.0200334 2.81475e-19)
(0.00313123 -0.0222048 0)
(-0.00208529 0.000578393 -8.53777e-17)
(-0.00125415 0.00137421 1.61306e-17)
(0.000577732 0.00204036 -9.99843e-18)
(0.00284551 0.00217935 -1.35436e-18)
(0.00557854 0.00105052 5.42509e-18)
(0.00824774 -0.00129691 1.34923e-18)
(0.0104188 -0.00486113 -1.34891e-18)
(0.0116942 -0.00923231 8.96796e-21)
(0.0116835 -0.014073 0)
(0.010235 -0.0187523 2.65347e-18)
(0.0071665 -0.0222235 0)
(0.00286696 -0.0243745 0)
(-0.0011401 0.00062918 9.17289e-17)
(-0.000855343 0.00122154 -2.51312e-17)
(0.000867678 0.00167133 1.939e-17)
(0.00302489 0.00123265 1.66817e-17)
(0.00612496 -0.000488504 2.07172e-18)
(0.00873021 -0.0039375 8.2642e-18)
(0.0113884 -0.0085568 -9.27505e-18)
(0.0124178 -0.0143421 6.15734e-18)
(0.0127395 -0.0204137 1.02285e-18)
(0.0107856 -0.0263003 4.05406e-18)
(0.0075706 -0.0304891 -2.01319e-18)
(0.00303329 -0.0331198 0)
(-0.000831782 0.000354862 0)
(-0.000550668 0.00103454 4.4908e-17)
(0.00127516 0.00101308 -4.30895e-17)
(0.0038605 -0.000421944 9.40837e-18)
(0.00772977 -0.00380229 -9.36979e-18)
(0.0110584 -0.00969632 -1.86665e-17)
(0.014523 -0.0173186 2.55872e-17)
(0.0158588 -0.0266105 -2.32075e-18)
(0.0163535 -0.0362499 0)
(0.0136715 -0.0454163 -9.15654e-18)
(0.00937366 -0.051903 1.36453e-17)
(0.00396828 -0.0560239 0)
(7.51912e-05 -0.000844207 -2.75429e-16)
(0.00107855 -0.00108344 1.58859e-16)
(0.00354925 -0.0026371 1.48363e-16)
(0.0066461 -0.00609653 0)
(0.0115526 -0.0125072 -1.47512e-16)
(0.0158203 -0.0227728 -1.28782e-16)
(0.0204787 -0.0358237 5.48296e-17)
(0.0222842 -0.0516471 -9.09331e-18)
(0.0230582 -0.0681123 9.08124e-18)
(0.0191406 -0.0836494 0)
(0.0130467 -0.094717 6.74898e-23)
(0.00575597 -0.102422 8.87933e-18)
)
;

boundaryField
{
    rotor
    {
        type            fixedValue;
        value           nonuniform List<vector> 
48
(
(-0.201784 0.00660572 0)
(-0.20092 0.0197889 0)
(-0.199195 0.0328873 0)
(-0.196618 0.0458448 0)
(-0.193198 0.0586061 0)
(-0.188952 0.0711164 0)
(-0.183896 0.0833222 0)
(-0.178053 0.0951712 0)
(-0.171447 0.106613 0)
(-0.164107 0.117597 0)
(-0.156065 0.128079 0)
(-0.147354 0.138012 0)
(-0.138012 0.147354 0)
(-0.128079 0.156065 0)
(-0.117597 0.164107 0)
(-0.106613 0.171447 0)
(-0.0951712 0.178053 0)
(-0.0833222 0.183896 0)
(-0.0711164 0.188952 0)
(-0.0586061 0.193198 0)
(-0.0458448 0.196618 0)
(-0.0328873 0.199195 0)
(-0.0197889 0.20092 0)
(-0.00660572 0.201784 0)
(0 0.214625 0)
(0 0.239875 0)
(0 0.265125 0)
(0 0.290375 0)
(0 0.315625 0)
(0 0.340875 0)
(0 0.366125 0)
(0 0.391375 0)
(0 0.416625 0)
(0 0.441875 0)
(0 0.467125 0)
(0 0.492375 0)
(-0.214625 3.8523e-10 0)
(-0.239875 4.30551e-10 0)
(-0.265125 4.75872e-10 0)
(-0.290375 5.21193e-10 0)
(-0.315625 5.66514e-10 0)
(-0.340875 6.11835e-10 0)
(-0.366125 6.57157e-10 0)
(-0.391375 7.02478e-10 0)
(-0.416625 7.47799e-10 0)
(-0.441875 7.9312e-10 0)
(-0.467125 8.38441e-10 0)
(-0.492375 8.83762e-10 0)
)
;
    }
    stator
    {
        type            noSlip;
    }
    front
    {
        type            empty;
    }
    back
    {
        type            empty;
    }
    procBoundary3to1
    {
        type            processor;
        value           nonuniform List<vector> 
20
(
(-0.310026 -0.575334 1.45788e-19)
(-0.179782 -0.404063 0)
(-0.0919173 -0.267635 -1.63305e-19)
(-0.0519703 -0.185801 -3.28674e-19)
(-0.034843 -0.134286 3.17053e-19)
(-0.0228788 -0.101236 -1.52797e-19)
(-0.0158207 -0.0789539 0)
(-0.011401 -0.0633094 0)
(-0.00850658 -0.0519751 -2.98066e-19)
(-0.00651337 -0.043526 2.92268e-19)
(-0.00509316 -0.0371114 -2.86912e-19)
(-0.00404163 -0.032138 2.813e-19)
(-0.00325901 -0.0282513 0)
(-0.00267759 -0.0252061 0)
(-0.00222534 -0.0230519 0)
(-0.0019642 -0.0222948 0)
(-0.0017972 -0.0244867 0)
(-0.00186797 -0.0331789 0)
(-0.00247678 -0.0561057 0)
(-0.00352672 -0.103384 -8.40951e-18)
)
;
    }
    procBoundary3to2
    {
        type            processor;
        value           nonuniform List<vector> 
20
(
(0.403046 0.895593 1.06498e-18)
(0.356595 0.324293 -3.23949e-19)
(0.243725 0.160769 -9.13963e-21)
(0.172561 0.0905463 -5.74635e-19)
(0.128836 0.0528023 7.21433e-19)
(0.098671 0.0340531 -1.72076e-19)
(0.0776616 0.0233378 -3.33934e-19)
(0.0626377 0.0167698 6.53143e-19)
(0.0516032 0.0125096 -3.1942e-19)
(0.0433116 0.00960911 -3.1131e-19)
(0.0369598 0.0075581 3.05226e-19)
(0.0320164 0.00606449 -1.50122e-19)
(0.0281187 0.0049523 5.84248e-19)
(0.0250594 0.00411299 -5.72871e-19)
(0.0228687 0.00349116 1.41755e-19)
(0.0220766 0.00306399 -5.81214e-19)
(0.0241629 0.00288187 6.82698e-19)
(0.032578 0.00308581 1.04525e-18)
(0.0542577 0.00392238 -2.95569e-18)
(0.0940067 0.00541942 -1.8591e-17)
)
;
    }
}


// ************************************************************************* //
