/*--------------------------------*- C++ -*----------------------------------*\
  =========                 |
  \\      /  F ield         | OpenFOAM: The Open Source CFD Toolbox
   \\    /   O peration     | Website:  https://openfoam.org
    \\  /    A nd           | Version:  6
     \\/     M anipulation  |
\*---------------------------------------------------------------------------*/
FoamFile
{
    version     2.0;
    format      ascii;
    class       volScalarField;
    location    "1500";
    object      k;
}
// * * * * * * * * * * * * * * * * * * * * * * * * * * * * * * * * * * * * * //

dimensions      [0 2 -2 0 0 0 0];

internalField   nonuniform List<scalar> 
768
(
0.410724
0.564569
0.609824
0.64537
0.644503
0.654993
0.634683
0.643767
0.659938
0.67234
0.647979
0.644172
0.478148
0.773065
0.902224
0.943681
0.95554
0.961
0.961754
0.963652
0.964401
0.965387
0.963779
0.963808
0.481887
0.817268
0.939977
0.971331
0.980072
0.982943
0.98378
0.9842
0.984277
0.984315
0.984127
0.984109
0.482971
0.830831
0.948438
0.975509
0.982935
0.985299
0.985985
0.986228
0.986244
0.98628
0.986252
0.986244
0.491381
0.841164
0.952956
0.976849
0.983284
0.985282
0.985834
0.986001
0.985986
0.985985
0.985912
0.985885
0.494354
0.850701
0.956899
0.977659
0.983132
0.984633
0.985072
0.98506
0.985088
0.985021
0.985077
0.985
0.503051
0.86481
0.961607
0.978759
0.982837
0.984019
0.984161
0.984213
0.98408
0.984132
0.983974
0.983931
0.500971
0.878351
0.967253
0.979969
0.982701
0.98335
0.983402
0.983236
0.983082
0.983068
0.983035
0.982991
0.523984
0.89339
0.973691
0.981467
0.98256
0.982681
0.982595
0.982424
0.982292
0.982083
0.981955
0.982008
0.518598
0.896067
0.978995
0.982857
0.982435
0.982073
0.981827
0.981492
0.981325
0.981146
0.981049
0.98112
0.538219
0.900958
0.98341
0.984035
0.98229
0.981449
0.981013
0.980691
0.980408
0.980308
0.980153
0.980114
0.709818
0.947868
0.987942
0.984399
0.981902
0.980672
0.979977
0.979636
0.979582
0.979565
0.979431
0.979394
0.654149
0.661698
0.641864
0.640875
0.648223
0.662772
0.648344
0.639151
0.61931
0.581099
0.513743
0.392779
0.963789
0.964668
0.963653
0.963906
0.964774
0.966526
0.966438
0.964383
0.952536
0.905285
0.739448
0.453584
0.984028
0.984055
0.983948
0.984
0.984086
0.984248
0.984208
0.983444
0.978683
0.953626
0.834766
0.473825
0.986159
0.986136
0.986111
0.986153
0.98616
0.986195
0.986146
0.985668
0.982428
0.963432
0.857746
0.478684
0.985844
0.98587
0.985809
0.985768
0.985767
0.985827
0.985905
0.985644
0.983168
0.967221
0.868489
0.485739
0.984996
0.984891
0.984903
0.984809
0.984819
0.984868
0.984997
0.98486
0.983011
0.970045
0.880399
0.487302
0.983818
0.983843
0.983825
0.983886
0.983827
0.983918
0.983962
0.984062
0.983061
0.972982
0.889553
0.500688
0.982923
0.982824
0.98278
0.982734
0.982779
0.982843
0.98311
0.983472
0.983161
0.97672
0.905292
0.517009
0.981971
0.981815
0.981722
0.981764
0.981817
0.981983
0.98231
0.98285
0.983722
0.980437
0.916615
0.54478
0.981072
0.980954
0.980788
0.980783
0.980861
0.981094
0.981577
0.982444
0.984018
0.984905
0.935229
0.565777
0.980012
0.979898
0.979918
0.980074
0.980155
0.980363
0.980865
0.981819
0.98436
0.988927
0.958572
0.604001
0.97914
0.979042
0.979098
0.979189
0.979442
0.979694
0.98011
0.98111
0.984008
0.994094
1.01611
0.688889
0.969716
1.00192
0.991788
0.983746
0.980844
0.979614
0.979068
0.978947
0.978842
0.978662
0.978579
0.978628
1.01075
0.998427
0.987341
0.981632
0.979551
0.978663
0.978053
0.977856
0.977829
0.977843
0.977908
0.977861
0.997356
0.988902
0.982628
0.979482
0.978236
0.977819
0.977317
0.977093
0.977088
0.977044
0.977151
0.976975
0.985993
0.982269
0.979199
0.977698
0.976982
0.976678
0.976417
0.976413
0.97646
0.976476
0.976345
0.976144
0.978371
0.978307
0.978419
0.978507
0.978578
0.978684
0.979107
0.980078
0.982846
0.992273
1.024
0.936347
0.977761
0.977679
0.977725
0.977647
0.977667
0.97789
0.97826
0.979008
0.980806
0.986492
1.00373
1.02279
0.976777
0.976787
0.976766
0.976862
0.977142
0.977368
0.977578
0.977947
0.979002
0.981792
0.989079
0.999873
0.975921
0.976088
0.976297
0.976325
0.97635
0.976415
0.97688
0.977189
0.977584
0.978835
0.981711
0.98597
0.980113
0.978273
0.976923
0.976245
0.975905
0.975717
0.975589
0.975553
0.975581
0.975545
0.975181
0.974027
0.977295
0.976195
0.975545
0.975218
0.97507
0.974965
0.974902
0.974885
0.974891
0.974679
0.973036
0.967977
0.975802
0.974995
0.974646
0.974482
0.974422
0.974365
0.974336
0.974331
0.974278
0.973425
0.967409
0.94701
0.974891
0.974204
0.973985
0.9739
0.973876
0.973839
0.973825
0.97382
0.973629
0.971279
0.954045
0.876807
0.973866
0.974862
0.975344
0.975467
0.975541
0.975661
0.975868
0.976016
0.976299
0.976903
0.978089
0.979738
0.967267
0.972253
0.974305
0.974811
0.974933
0.975022
0.975109
0.975204
0.975357
0.975646
0.976115
0.976776
0.945007
0.9656
0.972598
0.974091
0.974359
0.974439
0.974481
0.974544
0.974618
0.974734
0.974933
0.975246
0.869274
0.950904
0.969857
0.973284
0.973831
0.973926
0.973958
0.973998
0.974025
0.974057
0.974131
0.974319
0.974253
0.973617
0.973456
0.973409
0.973407
0.973384
0.973377
0.973363
0.972973
0.968591
0.93069
0.653285
0.973737
0.973142
0.973012
0.972982
0.972988
0.972966
0.972963
0.97294
0.972447
0.966945
0.917094
0.547851
0.973316
0.972737
0.972624
0.972601
0.972612
0.972599
0.972596
0.972576
0.972063
0.966363
0.914516
0.536344
0.972924
0.972382
0.972281
0.972266
0.972271
0.97226
0.972258
0.972236
0.971761
0.966331
0.916043
0.540671
0.972593
0.972045
0.971961
0.971946
0.971951
0.971946
0.971942
0.971929
0.971496
0.966489
0.91873
0.544692
0.972182
0.971658
0.971574
0.971566
0.971567
0.971559
0.971557
0.971539
0.971166
0.966589
0.921425
0.550508
0.971211
0.970605
0.970509
0.9705
0.970501
0.970502
0.970497
0.970484
0.970152
0.96592
0.92302
0.555318
0.967082
0.966221
0.966082
0.966056
0.966047
0.966048
0.966043
0.966032
0.965726
0.961616
0.919844
0.558686
0.951295
0.949739
0.949456
0.949409
0.949356
0.949373
0.949345
0.949367
0.949057
0.944659
0.90151
0.552373
0.899643
0.896853
0.896324
0.89611
0.895992
0.895951
0.895903
0.895971
0.895705
0.890895
0.844038
0.520623
0.742541
0.737891
0.736819
0.736077
0.735704
0.735564
0.73543
0.73546
0.73538
0.731219
0.686794
0.441592
0.359266
0.358089
0.357135
0.355497
0.353952
0.353277
0.352696
0.351864
0.351209
0.349967
0.337036
0.267868
0.646527
0.92814
0.966717
0.972488
0.97333
0.973453
0.973477
0.973513
0.973509
0.973508
0.97353
0.973669
0.550828
0.914637
0.964748
0.971882
0.972895
0.973038
0.973059
0.973083
0.973069
0.97306
0.973054
0.973164
0.539896
0.911511
0.964069
0.971479
0.972511
0.97265
0.972673
0.972687
0.972672
0.972654
0.972643
0.972739
0.542267
0.91256
0.964069
0.971201
0.972176
0.972301
0.972326
0.972332
0.972316
0.972299
0.972277
0.972368
0.547173
0.91499
0.964336
0.970984
0.97186
0.971967
0.971995
0.97199
0.971987
0.971953
0.971943
0.972028
0.552111
0.917593
0.964572
0.9707
0.971479
0.971573
0.971593
0.971594
0.971584
0.971568
0.971541
0.971624
0.558138
0.919285
0.96404
0.969731
0.970425
0.970513
0.970527
0.970535
0.970526
0.970508
0.970487
0.970561
0.561879
0.916423
0.959853
0.965345
0.966003
0.966098
0.966108
0.966133
0.966111
0.966118
0.966083
0.966157
0.55582
0.898747
0.942985
0.948737
0.949413
0.949557
0.949572
0.949634
0.94959
0.949624
0.949558
0.949662
0.523335
0.842222
0.889319
0.895525
0.896289
0.8965
0.896597
0.896737
0.896678
0.89672
0.896682
0.896735
0.443239
0.686473
0.730086
0.735666
0.736496
0.736866
0.737241
0.737574
0.737464
0.737573
0.737749
0.737484
0.269295
0.337852
0.350277
0.35157
0.351902
0.352545
0.353623
0.354337
0.354716
0.355299
0.355633
0.35591
)
;

boundaryField
{
    rotor
    {
        type            kqRWallFunction;
        value           nonuniform List<scalar> 
48
(
0.410724
0.564569
0.609824
0.64537
0.644503
0.654993
0.634683
0.643767
0.659938
0.67234
0.647979
0.644172
0.654149
0.661698
0.641864
0.640875
0.648223
0.662772
0.648344
0.639151
0.61931
0.581099
0.513743
0.392779
0.410724
0.478148
0.481887
0.482971
0.491381
0.494354
0.503051
0.500971
0.523984
0.518598
0.538219
0.709818
0.392779
0.453584
0.473825
0.478684
0.485739
0.487302
0.500688
0.517009
0.54478
0.565777
0.604001
0.688889
)
;
    }
    stator
    {
        type            kqRWallFunction;
        value           nonuniform List<scalar> 
48
(
0.359266
0.358089
0.357135
0.355497
0.353952
0.353277
0.352696
0.351864
0.351209
0.349967
0.337036
0.267868
0.269295
0.337852
0.350277
0.35157
0.351902
0.352545
0.353623
0.354337
0.354716
0.355299
0.355633
0.35591
0.646527
0.550828
0.539896
0.542267
0.547173
0.552111
0.558138
0.561879
0.55582
0.523335
0.443239
0.269295
0.653285
0.547851
0.536344
0.540671
0.544692
0.550508
0.555318
0.558686
0.552373
0.520623
0.441592
0.267868
)
;
    }
    front
    {
        type            empty;
    }
    back
    {
        type            empty;
    }
    procBoundary2to0
    {
        type            processor;
        value           nonuniform List<scalar> 
20
(
0.935387
1.02212
0.999784
0.985968
0.979769
0.976839
0.975312
0.974393
0.973728
0.973231
0.972792
0.97243
0.972071
0.971684
0.970601
0.966201
0.949709
0.896858
0.737731
0.356618
)
;
    }
    procBoundary2to3
    {
        type            processor;
        value           nonuniform List<scalar> 
20
(
0.970024
1.0113
0.99766
0.986104
0.980157
0.977296
0.975784
0.974867
0.974214
0.973695
0.973263
0.972882
0.972537
0.972143
0.971162
0.967044
0.951241
0.899509
0.742161
0.358635
)
;
    }
}


// ************************************************************************* //
