/*--------------------------------*- C++ -*----------------------------------*\
  =========                 |
  \\      /  F ield         | OpenFOAM: The Open Source CFD Toolbox
   \\    /   O peration     | Website:  https://openfoam.org
    \\  /    A nd           | Version:  6
     \\/     M anipulation  |
\*---------------------------------------------------------------------------*/
FoamFile
{
    version     2.0;
    format      ascii;
    class       surfaceScalarField;
    location    "1500";
    object      phi;
}
// * * * * * * * * * * * * * * * * * * * * * * * * * * * * * * * * * * * * * //

dimensions      [0 3 -1 0 0 0 0];

internalField   nonuniform List<scalar> 
1468
(
-3.31229e-06
3.33778e-06
-5.29297e-06
1.16442e-06
-5.88241e-06
7.14594e-07
-7.77159e-06
9.86619e-07
-8.48547e-06
8.70817e-07
-1.00025e-05
5.73645e-07
-1.02257e-05
3.78012e-07
-1.13393e-05
1.9384e-07
-1.12703e-05
1.19561e-07
-1.20458e-05
3.60214e-08
-1.16428e-05
3.54487e-08
-6.11386e-09
-1.21054e-05
-3.61111e-06
6.78252e-06
-4.56472e-06
1.93011e-06
-4.53509e-06
6.45297e-07
-4.04471e-06
3.66561e-07
-3.45726e-06
2.485e-07
-3.14045e-06
1.28805e-07
-2.84186e-06
3.90785e-08
-2.7552e-06
-2.87873e-08
-2.59873e-06
-5.34546e-08
-2.58372e-06
-6.31738e-08
-2.46994e-06
-4.41969e-08
-2.53527e-08
-2.48337e-06
-9.04104e-07
7.45825e-06
-6.76536e-07
1.58088e-06
-2.87639e-07
2.23564e-07
1.17759e-07
-8.51362e-08
5.14867e-07
-1.73674e-07
8.14533e-07
-2.13845e-07
1.06105e-06
-2.30186e-07
1.21971e-06
-2.27557e-07
1.35643e-06
-2.02514e-07
1.43358e-06
-1.62142e-07
1.50464e-06
-1.07795e-07
-4.86784e-08
1.52576e-06
-3.8313e-07
7.47518e-06
5.78994e-07
4.87768e-07
1.17754e-06
-4.12459e-07
1.60655e-06
-5.55589e-07
1.97448e-06
-5.64401e-07
2.26579e-06
-5.40561e-07
2.51212e-06
-4.96948e-07
2.69114e-06
-4.3746e-07
2.83863e-06
-3.61465e-07
2.9323e-06
-2.74263e-07
3.0037e-06
-1.78539e-07
-7.90212e-08
3.03038e-06
7.78139e-08
6.75454e-06
1.14364e-06
-7.61044e-07
1.87365e-06
-1.20677e-06
2.37919e-06
-1.11729e-06
2.78588e-06
-1.00586e-06
3.10868e-06
-9.10442e-07
3.37871e-06
-7.95028e-07
3.58134e-06
-6.79797e-07
3.7439e-06
-5.41194e-07
3.8494e-06
-4.08524e-07
3.92569e-06
-2.58729e-07
-1.22495e-07
3.95242e-06
1.58535e-07
5.81267e-06
1.57029e-06
-2.40551e-06
2.42742e-06
-2.21137e-06
3.04173e-06
-1.79667e-06
3.493e-06
-1.5505e-06
3.87491e-06
-1.33639e-06
4.1574e-06
-1.15353e-06
4.39717e-06
-9.45796e-07
4.55363e-06
-7.57877e-07
4.68387e-06
-5.47018e-07
4.74209e-06
-3.62657e-07
-1.58531e-07
4.78682e-06
7.70376e-08
4.15193e-06
1.93116e-06
-4.67443e-06
3.03281e-06
-3.44956e-06
3.73368e-06
-2.63908e-06
4.28087e-06
-2.17201e-06
4.6776e-06
-1.84036e-06
5.00857e-06
-1.53198e-06
5.23158e-06
-1.25147e-06
5.41822e-06
-9.67809e-07
5.51832e-06
-7.09787e-07
5.60088e-06
-4.49895e-07
-2.12669e-07
5.61454e-06
2.14839e-07
3.43137e-06
2.39459e-06
-7.08199e-06
3.7119e-06
-4.90123e-06
4.55596e-06
-3.58517e-06
5.15576e-06
-2.86258e-06
5.59431e-06
-2.35306e-06
5.91721e-06
-1.92313e-06
6.14985e-06
-1.53507e-06
6.31193e-06
-1.17835e-06
6.41475e-06
-8.49463e-07
6.47412e-06
-5.41753e-07
-2.51378e-07
6.49526e-06
3.06898e-07
2.04718e-06
2.91961e-06
-9.92267e-06
4.53804e-06
-6.62168e-06
5.51774e-06
-4.64608e-06
6.16215e-06
-3.57755e-06
6.60144e-06
-2.85772e-06
6.90608e-06
-2.282e-06
7.11474e-06
-1.79165e-06
7.25199e-06
-1.35835e-06
7.33543e-06
-9.71726e-07
7.37891e-06
-6.17257e-07
-2.88435e-07
7.39314e-06
1.00141e-06
1.2248e-06
3.85523e-06
-1.27771e-05
5.64843e-06
-8.45575e-06
6.68432e-06
-5.71674e-06
7.30652e-06
-4.24453e-06
7.70062e-06
-3.28832e-06
7.9522e-06
-2.57148e-06
8.11661e-06
-1.98689e-06
8.21509e-06
-1.49281e-06
8.27163e-06
-1.05867e-06
8.294e-06
-6.72684e-07
-3.13391e-07
8.30182e-06
3.49344e-06
-1.99372e-06
5.76265e-06
-1.49303e-05
7.26309e-06
-9.9357e-06
8.11667e-06
-6.57998e-06
8.59385e-06
-4.74346e-06
8.86961e-06
-3.58881e-06
9.03425e-06
-2.76115e-06
9.13209e-06
-2.11146e-06
9.18513e-06
-1.57421e-06
9.20567e-06
-1.11227e-06
9.2084e-06
-7.04503e-07
-3.29896e-07
9.20622e-06
9.78906e-06
-1.15575e-05
9.44503e-06
-1.43821e-05
9.60278e-06
-1.00027e-05
9.83325e-06
-6.78042e-06
9.98608e-06
-4.88306e-06
1.00721e-05
-3.67594e-06
1.01208e-05
-2.81358e-06
1.01422e-05
-2.14434e-06
1.01439e-05
-1.59314e-06
1.01283e-05
-1.1236e-06
1.01095e-05
-7.0954e-07
1.00978e-05
-3.33985e-07
-1.15428e-05
3.63141e-09
-1.17158e-05
-3.60211e-08
-1.09657e-05
-3.2408e-08
-1.09208e-05
-7.7176e-08
-1.01107e-05
-1.12189e-07
-9.82292e-06
-2.32828e-07
-8.88652e-06
-3.74315e-07
-8.05494e-06
-5.51092e-07
-7.14002e-06
-5.24832e-07
-6.16839e-06
-6.34576e-07
-3.45577e-06
-2.18935e-06
-3.31887e-06
-2.40991e-06
6.08034e-09
-2.44973e-06
2.55437e-08
-2.41389e-06
4.68113e-08
-2.48325e-06
4.95809e-08
-2.51928e-06
4.00304e-08
-2.68405e-06
-4.90539e-09
-2.88792e-06
-7.28831e-08
-3.18812e-06
-1.68778e-07
-3.31404e-06
-2.99782e-07
-3.1597e-06
-6.63605e-07
-3.14961e-06
-1.96555e-06
-6.40349e-06
1.54303e-06
1.43636e-08
1.51506e-06
7.31775e-08
1.47704e-06
1.26901e-07
1.39091e-06
1.69368e-07
1.27967e-06
1.98085e-07
1.10615e-06
2.07831e-07
8.77583e-07
1.97013e-07
5.89194e-07
1.61953e-07
2.62241e-07
6.67074e-08
-8.02806e-08
-2.50394e-07
-3.10032e-07
-1.62703e-06
-6.70718e-06
3.03752e-06
2.07182e-08
3.00308e-06
1.1811e-07
2.94729e-06
2.10456e-07
2.84483e-06
2.9433e-07
2.71006e-06
3.69114e-07
2.5177e-06
4.2872e-07
2.27662e-06
4.74088e-07
1.96904e-06
4.97029e-07
1.58818e-06
4.79799e-07
1.03e-06
3.20712e-07
2.76545e-08
-6.22126e-07
-6.52851e-06
3.95582e-06
2.65594e-08
3.91417e-06
1.59957e-07
3.84603e-06
3.02017e-07
3.73084e-06
4.30747e-07
3.57352e-06
5.61838e-07
3.3586e-06
6.80053e-07
3.07822e-06
7.9198e-07
2.71632e-06
8.89118e-07
2.23667e-06
9.87921e-07
1.48346e-06
1.10177e-06
1.59505e-07
9.69391e-07
-6.21112e-06
4.76864e-06
1.93485e-08
4.73874e-06
2.17317e-07
4.65156e-06
3.9612e-07
4.53822e-06
5.93573e-07
4.36024e-06
7.79109e-07
4.12884e-06
9.78409e-07
3.80611e-06
1.16445e-06
3.39759e-06
1.36985e-06
2.85512e-06
1.62184e-06
2.0762e-06
2.02542e-06
8.34188e-07
2.37876e-06
-4.76513e-06
5.62013e-06
3.17425e-08
5.56695e-06
2.63377e-07
5.50113e-06
5.12511e-07
5.37175e-06
7.58401e-07
5.20643e-06
1.02987e-06
4.94961e-06
1.30059e-06
4.61955e-06
1.60178e-06
4.17486e-06
1.92059e-06
3.55891e-06
2.31027e-06
2.66146e-06
3.02164e-06
1.58141e-06
4.0524e-06
-3.11617e-06
6.48745e-06
3.14469e-08
6.45214e-06
3.16591e-07
6.38255e-06
6.10096e-07
6.27862e-06
9.25975e-07
6.10988e-06
1.26024e-06
5.87584e-06
1.63094e-06
5.53064e-06
2.02634e-06
5.04369e-06
2.47854e-06
4.39309e-06
3.09449e-06
3.41262e-06
4.11368e-06
1.9365e-06
5.53421e-06
-6.55249e-07
7.38733e-06
3.24635e-08
7.35958e-06
3.55272e-07
7.31052e-06
6.95639e-07
7.22329e-06
1.06281e-06
7.08679e-06
1.4658e-06
6.86909e-06
1.91607e-06
6.54545e-06
2.42674e-06
6.08285e-06
3.03415e-06
5.35644e-06
3.81394e-06
4.26785e-06
5.26278e-06
2.7631e-06
7.40449e-06
1.82996e-06
8.29756e-06
3.19556e-08
8.28419e-06
3.83889e-07
8.25737e-06
7.58401e-07
8.20009e-06
1.16462e-06
8.10276e-06
1.62187e-06
7.93176e-06
2.13806e-06
7.66335e-06
2.74534e-06
7.22449e-06
3.49096e-06
6.57858e-06
4.55399e-06
5.49252e-06
6.33983e-06
3.68844e-06
8.98846e-06
5.6333e-06
9.20669e-06
2.94755e-08
9.20974e-06
3.98473e-07
9.20654e-06
7.93479e-07
9.1877e-06
1.22635e-06
9.13575e-06
1.71465e-06
9.03313e-06
2.27594e-06
8.854e-06
2.95649e-06
8.55732e-06
3.82321e-06
8.02403e-06
5.02945e-06
7.21503e-06
7.15418e-06
5.5832e-06
1.0621e-05
1.07397e-05
1.0104e-05
2.49495e-08
1.01236e-05
3.98421e-07
1.01455e-05
7.99356e-07
1.01643e-05
1.24309e-06
1.01635e-05
1.7378e-06
1.01446e-05
2.31489e-06
1.00904e-05
3.00955e-06
9.98187e-06
3.91395e-06
9.80585e-06
5.23092e-06
9.48015e-06
7.36678e-06
8.57042e-06
1.12357e-05
1.93688e-05
1.74174e-05
-6.70431e-06
1.39277e-05
-1.07124e-05
1.22457e-05
-8.226e-06
1.16161e-05
-6.10521e-06
1.13662e-05
-4.61156e-06
1.12468e-05
-3.54906e-06
1.11772e-05
-2.74356e-06
1.11257e-05
-2.1002e-06
1.10776e-05
-1.56246e-06
1.10292e-05
-1.10091e-06
1.09886e-05
-6.93195e-07
-3.26739e-07
1.09683e-05
1.90963e-05
-3.55272e-06
1.56647e-05
-7.11855e-06
1.39091e-05
-6.36312e-06
1.3036e-05
-5.16083e-06
1.25852e-05
-4.11942e-06
1.2334e-05
-3.26894e-06
1.21774e-05
-2.57096e-06
1.20685e-05
-1.98421e-06
1.19793e-05
-1.4813e-06
1.19028e-05
-1.04051e-06
1.18419e-05
-6.53133e-07
-3.06369e-07
1.18115e-05
1.86096e-05
-2.02608e-06
1.63913e-05
-4.77039e-06
1.49694e-05
-4.84286e-06
1.4131e-05
-4.25635e-06
1.36297e-05
-3.57611e-06
1.3318e-05
-2.93012e-06
1.31122e-05
-2.34957e-06
1.29645e-05
-1.83171e-06
1.28461e-05
-1.3705e-06
1.27448e-05
-9.59845e-07
1.26664e-05
-5.91458e-07
-2.6198e-07
1.26226e-05
1.81379e-05
-1.27058e-06
1.67753e-05
-3.30161e-06
1.57226e-05
-3.69332e-06
1.50066e-05
-3.46977e-06
1.45301e-05
-3.04544e-06
1.42075e-05
-2.56965e-06
1.39827e-05
-2.0965e-06
1.38146e-05
-1.64801e-06
1.36765e-05
-1.23137e-06
1.35574e-05
-8.50294e-07
1.34618e-05
-5.00888e-07
1.3387e-05
-2.01516e-07
1.09818e-05
1.4672e-08
1.10165e-05
3.8067e-07
1.10632e-05
7.79175e-07
1.1113e-05
1.21703e-06
1.11637e-05
1.70258e-06
1.12204e-05
2.26009e-06
1.13018e-05
2.92096e-06
1.14547e-05
3.74997e-06
1.17623e-05
4.84992e-06
1.25528e-05
6.53169e-06
1.47473e-05
8.97839e-06
1.24282e-05
1.18349e-05
-3.06589e-09
1.18849e-05
3.46446e-07
1.19519e-05
7.3367e-07
1.20272e-05
1.15299e-06
1.21172e-05
1.61547e-06
1.22311e-05
2.12997e-06
1.24045e-05
2.72135e-06
1.26952e-05
3.41646e-06
1.32474e-05
4.27051e-06
1.43444e-05
5.33133e-06
1.65815e-05
6.62459e-06
6.99088e-06
1.26616e-05
-4.24029e-08
1.27276e-05
2.92155e-07
1.28093e-05
6.65268e-07
1.29048e-05
1.06467e-06
1.30191e-05
1.49619e-06
1.31683e-05
1.96275e-06
1.33861e-05
2.47573e-06
1.37316e-05
3.03646e-06
1.43037e-05
3.64177e-06
1.53111e-05
4.28228e-06
1.71031e-05
4.77719e-06
4.04302e-06
1.3462e-05
-1.1089e-07
1.35462e-05
2.17301e-07
1.36406e-05
5.76383e-07
1.37498e-05
9.54241e-07
1.3878e-05
1.35052e-06
1.40445e-05
1.76847e-06
1.42757e-05
2.20296e-06
1.46199e-05
2.64753e-06
1.51491e-05
3.07231e-06
1.59683e-05
3.40053e-06
1.72548e-05
3.44972e-06
2.4467e-06
2.46222e-06
-8.20842e-07
1.5941e-06
-2.34669e-06
8.29007e-07
-2.84886e-06
2.5484e-07
-2.83371e-06
-1.59719e-07
-2.58495e-06
-4.58794e-07
-2.23824e-06
-6.7869e-07
-1.85402e-06
-8.5054e-07
-1.4648e-06
-9.98259e-07
-1.08519e-06
-1.13192e-06
-7.26372e-07
-1.25813e-06
-3.86464e-07
-4.98751e-08
-1.37908e-06
1.88448e-06
-5.55121e-07
1.32312e-06
-1.7141e-06
7.64818e-07
-2.22207e-06
3.06263e-07
-2.31443e-06
-4.99848e-08
-2.18105e-06
-3.20961e-07
-1.92779e-06
-5.30073e-07
-1.61534e-06
-7.00021e-07
-1.27476e-06
-8.54256e-07
-9.24293e-07
-1.0095e-06
-5.72962e-07
-1.18612e-06
-1.88683e-07
1.82757e-07
-1.45245e-06
1.48054e-06
-3.90386e-07
1.10599e-06
-1.2851e-06
6.94189e-07
-1.75344e-06
3.27667e-07
-1.89839e-06
2.57906e-08
-1.83911e-06
-2.15231e-07
-1.65567e-06
-4.07973e-07
-1.39982e-06
-5.7012e-07
-1.09891e-06
-7.24623e-07
-7.65713e-07
-8.99694e-07
-3.95878e-07
-1.19279e-06
9.03395e-08
7.65406e-07
-1.71394e-06
1.1898e-06
-2.81417e-07
9.31511e-07
-9.84267e-07
6.23017e-07
-1.39794e-06
3.29521e-07
-1.56171e-06
7.58994e-08
-1.54621e-06
-1.34841e-07
-1.41212e-06
-3.07532e-07
-1.19967e-06
-4.5466e-07
-9.31771e-07
-5.95594e-07
-6.15103e-07
-7.66987e-07
-2.2394e-07
-1.10526e-06
4.60694e-07
-2.15755e-06
1.76615e-06
-1.23676e-06
-2.74503e-07
-1.12197e-06
9.86712e-08
-1.01212e-06
4.66801e-07
-8.93219e-07
8.2917e-07
-7.55046e-07
1.19655e-06
-5.81115e-07
1.56841e-06
-3.46806e-07
1.93538e-06
-1.71981e-08
2.28209e-06
4.50462e-07
2.56761e-06
1.10937e-06
2.71512e-06
1.99919e-06
2.53791e-06
1.55844e-06
-1.1566e-06
-5.58818e-07
-9.88011e-07
-7.47803e-08
-8.61585e-07
3.3627e-07
-7.38762e-07
6.93069e-07
-6.0096e-07
1.0365e-06
-4.32866e-07
1.36651e-06
-2.129e-07
1.67662e-06
8.24246e-08
1.94666e-06
4.79977e-07
2.13633e-06
9.96947e-07
2.16932e-06
1.62112e-06
1.90236e-06
1.04642e-06
-1.13856e-06
-1.18406e-06
-8.71748e-07
-3.53808e-07
-7.29662e-07
1.85132e-07
-6.08358e-07
5.58687e-07
-4.77976e-07
8.86567e-07
-3.21439e-07
1.1836e-06
-1.2209e-07
1.44756e-06
1.36013e-07
1.65832e-06
4.67723e-07
1.78145e-06
8.7356e-07
1.74871e-06
1.31828e-06
1.45312e-06
7.33228e-07
-1.03049e-06
-2.28168e-06
-7.28794e-07
-6.58289e-07
-6.00519e-07
4.81709e-08
-4.92991e-07
4.3643e-07
-3.76158e-07
7.45631e-07
-2.34798e-07
1.01345e-06
-5.82416e-08
1.23802e-06
1.64705e-07
1.40596e-06
4.39249e-07
1.48307e-06
7.58302e-07
1.41745e-06
1.08196e-06
1.13011e-06
5.34237e-07
9.74841e-07
-2.12643e-07
7.91642e-07
-7.67349e-07
5.56775e-07
-1.12461e-06
3.2121e-07
-1.28935e-06
1.08789e-07
-1.30156e-06
-7.30869e-08
-1.20448e-06
-2.2432e-07
-1.02792e-06
-3.51193e-07
-7.92226e-07
-4.59946e-07
-5.00644e-07
-5.45965e-07
-1.33121e-07
-6.14665e-07
5.12365e-07
1.21122e-06
8.14156e-07
-1.58752e-07
6.79752e-07
-6.07552e-07
4.97785e-07
-9.14017e-07
3.07567e-07
-1.0693e-06
1.29754e-07
-1.09616e-06
-2.56873e-08
-1.02288e-06
-1.56329e-07
-8.76009e-07
-2.62495e-07
-6.6895e-07
-3.42839e-07
-4.11375e-07
-3.7933e-07
-9.74932e-08
-2.56034e-07
4.04691e-07
8.66792e-07
6.90566e-07
-1.2593e-07
5.89819e-07
-4.85722e-07
4.46885e-07
-7.46125e-07
2.92157e-07
-8.88286e-07
1.43524e-07
-9.234e-07
1.06145e-08
-8.70575e-07
-1.01045e-07
-7.48047e-07
-1.90142e-07
-5.70609e-07
-2.51339e-07
-3.44974e-07
-2.70038e-07
-7.83153e-08
-1.91757e-07
3.03434e-07
7.00459e-07
5.95909e-07
-9.2141e-08
5.17607e-07
-3.9483e-07
4.03479e-07
-6.15637e-07
2.7646e-07
-7.4411e-07
1.51667e-07
-7.80601e-07
3.84032e-08
-7.39768e-07
-5.72507e-08
-6.37689e-07
-1.31824e-07
-4.8345e-07
-1.80037e-07
-2.91812e-07
-1.92188e-07
-6.76133e-08
-1.26733e-07
2.38402e-07
4.82411e-07
5.19937e-07
-7.81845e-08
4.59517e-07
-3.19796e-07
3.66648e-07
-5.097e-07
2.61985e-07
-6.21329e-07
1.56758e-07
-6.59461e-07
5.9546e-08
-6.30129e-07
-2.20983e-08
-5.43996e-07
-8.62565e-08
-4.15414e-07
-1.24963e-07
-2.486e-07
-1.33229e-07
-6.24964e-08
-8.83283e-08
1.73736e-07
3.9304e-07
4.62647e-07
-5.3981e-08
4.13068e-07
-2.65183e-07
3.37023e-07
-4.26551e-07
2.4908e-07
-5.25347e-07
1.59642e-07
-5.61416e-07
7.59657e-08
-5.36073e-07
5.01078e-09
-4.65513e-07
-4.99197e-08
-3.52843e-07
-8.29849e-08
-2.13612e-07
-9.03083e-08
-5.78613e-08
-5.3242e-08
1.31694e-07
2.60551e-07
4.20532e-07
-4.50252e-08
3.80784e-07
-2.18277e-07
3.16494e-07
-3.55898e-07
2.41021e-07
-4.41995e-07
1.63942e-07
-4.7531e-07
8.93178e-08
-4.56406e-07
2.73697e-08
-3.9712e-07
-2.23994e-08
-3.02287e-07
-5.12543e-08
-1.84046e-07
-5.88198e-08
-5.39263e-08
-3.53826e-08
9.17813e-08
2.07061e-07
4.06114e-07
-2.73634e-08
3.71817e-07
-1.80007e-07
3.13971e-07
-2.97898e-07
2.45267e-07
-3.7037e-07
1.74774e-07
-4.03099e-07
1.04421e-07
-3.82382e-07
4.70154e-08
-3.37185e-07
-9.00794e-10
-2.52922e-07
-2.8005e-08
-1.56644e-07
-3.78197e-08
-4.82744e-08
-1.96124e-08
6.62703e-08
1.29753e-07
4.42378e-07
-1.95685e-08
4.09963e-07
-1.37776e-07
3.51303e-07
-2.34679e-07
2.79129e-07
-3.00313e-07
2.07562e-07
-3.18206e-07
1.30355e-07
-3.14528e-07
7.14788e-08
-2.67323e-07
1.77322e-08
-2.08829e-07
-1.10301e-08
-1.26112e-07
-2.47832e-08
-4.20747e-08
-1.25458e-08
4.05857e-08
9.15472e-08
5.84719e-07
-1.16035e-08
5.46039e-07
-8.46534e-08
4.72941e-07
-1.61859e-07
3.83697e-07
-2.08483e-07
2.90582e-07
-2.19441e-07
1.92756e-07
-2.21226e-07
1.14468e-07
-1.84385e-07
4.49297e-08
-1.50029e-07
5.36072e-09
-8.94422e-08
-1.61439e-08
-3.65357e-08
-7.34155e-09
1.19047e-08
1.50011e-08
8.84256e-07
-3.13753e-09
8.28509e-07
-4.77984e-09
7.29748e-07
-5.95487e-08
6.05554e-07
-7.86844e-08
4.70422e-07
-7.04345e-08
3.28122e-07
-8.77123e-08
2.10213e-07
-6.10488e-08
1.06942e-07
-7.40265e-08
4.35793e-08
-4.70409e-08
6.25533e-09
-5.0696e-08
3.98669e-09
-5.62414e-08
-1.1457e-07
7.5889e-07
7.54961e-07
6.9634e-07
6.21356e-07
5.48427e-07
4.62645e-07
3.95044e-07
3.16706e-07
2.58009e-07
1.93108e-07
1.1457e-07
-5.14366e-07
-1.81118e-06
-5.15991e-07
-6.65764e-07
-4.68347e-07
-9.17836e-09
-3.90605e-07
3.44329e-07
-2.9091e-07
6.27861e-07
-1.6669e-07
8.66924e-07
-1.17255e-08
1.05987e-06
1.78915e-07
1.19351e-06
4.0629e-07
1.24096e-06
6.58319e-07
1.15805e-06
8.98578e-07
8.93119e-07
4.01599e-07
-2.10748e-07
-1.54081e-06
-3.63894e-07
-5.10392e-07
-3.57968e-07
-2.1439e-08
-3.03187e-07
2.76191e-07
-2.20182e-07
5.25889e-07
-1.12415e-07
7.36273e-07
2.22454e-08
9.02491e-07
1.85021e-07
1.01094e-06
3.72958e-07
1.03911e-06
5.73817e-07
9.52497e-07
7.55754e-07
7.16331e-07
3.10349e-07
-1.73844e-07
-1.37443e-06
-2.72015e-07
-4.1436e-07
-2.7298e-07
-2.69066e-08
-2.31969e-07
2.23702e-07
-1.62429e-07
4.42296e-07
-6.90457e-08
6.26876e-07
4.75319e-08
7.69532e-07
1.86474e-07
8.58836e-07
3.42193e-07
8.73779e-07
5.03666e-07
7.90443e-07
6.43872e-07
5.80892e-07
2.45036e-07
-1.33078e-07
-1.17438e-06
-2.05232e-07
-3.36377e-07
-2.0724e-07
-2.86151e-08
-1.74425e-07
1.82328e-07
-1.15476e-07
3.70024e-07
-3.45222e-08
5.31187e-07
6.65471e-08
6.55211e-07
1.85139e-07
7.29062e-07
3.14929e-07
7.38656e-07
4.45177e-07
6.57211e-07
5.55755e-07
4.79397e-07
1.98705e-07
-1.01327e-07
-1.0562e-06
-1.55935e-07
-2.8091e-07
-1.56303e-07
-3.04997e-08
-1.28753e-07
1.46979e-07
-7.75255e-08
3.09901e-07
-6.65917e-09
4.51262e-07
8.07944e-08
5.5676e-07
1.83118e-07
6.22324e-07
2.90246e-07
6.23247e-07
3.98147e-07
5.57213e-07
4.85633e-07
3.97703e-07
1.63726e-07
-7.91918e-08
-9.23929e-07
-1.18958e-07
-2.3458e-07
-1.16942e-07
-3.36965e-08
-9.21554e-08
1.17749e-07
-4.67091e-08
2.57788e-07
1.55679e-08
3.81157e-07
9.26517e-08
4.74979e-07
1.80376e-07
5.2946e-07
2.71348e-07
5.3275e-07
3.59347e-07
4.68351e-07
4.30968e-07
3.38255e-07
1.39764e-07
-6.69648e-08
-8.29927e-07
-9.28149e-08
-2.05457e-07
-8.68905e-08
-3.90728e-08
-6.35659e-08
9.12332e-08
-2.18506e-08
2.12466e-07
3.48206e-08
3.20889e-07
1.03137e-07
4.01825e-07
1.81454e-07
4.508e-07
2.57761e-07
4.52296e-07
3.34006e-07
4.01045e-07
3.92382e-07
2.87982e-07
1.21273e-07
-6.36505e-08
-7.25662e-07
-7.61926e-08
-1.86878e-07
-6.59139e-08
-4.78304e-08
-4.24305e-08
6.71081e-08
-1.6224e-09
1.70536e-07
5.27744e-08
2.65178e-07
1.17081e-07
3.37795e-07
1.90786e-07
3.77807e-07
2.59011e-07
3.84542e-07
3.28216e-07
3.35651e-07
3.79063e-07
2.44788e-07
1.0778e-07
-6.95909e-08
-6.18616e-07
-7.1579e-08
-1.83415e-07
-5.57261e-08
-5.63191e-08
-3.01706e-08
3.70131e-08
1.53035e-08
1.28081e-07
7.42667e-08
2.04631e-07
1.42075e-07
2.64911e-07
2.21772e-07
3.0457e-07
2.89472e-07
3.06444e-07
3.62973e-07
2.77488e-07
4.13694e-07
2.06423e-07
9.3679e-08
-8.83823e-08
-4.76907e-07
-8.3961e-08
-1.75048e-07
-6.36858e-08
-6.52346e-08
-3.00163e-08
3.05364e-09
2.91598e-08
7.40976e-08
1.05244e-07
1.27256e-07
1.93907e-07
1.75947e-07
2.94823e-07
2.094e-07
3.81808e-07
2.11255e-07
4.75971e-07
2.14057e-07
5.39816e-07
1.65155e-07
8.49699e-08
-1.27039e-07
-2.46516e-07
-1.36295e-07
-1.21676e-07
-1.16174e-07
-5.00329e-08
-7.14866e-08
-3.30743e-08
1.1677e-08
6.4577e-09
1.19416e-07
2.08718e-08
2.48841e-07
5.03685e-08
3.92564e-07
7.54657e-08
5.24915e-07
7.86845e-08
6.68173e-07
1.56728e-07
7.7014e-07
1.42065e-07
1.03517e-07
-2.33204e-07
-3.45962e-07
-3.94205e-07
-4.23484e-07
-4.16606e-07
-3.95231e-07
-3.41873e-07
-2.68015e-07
-1.6957e-07
5.50484e-09
1.61694e-07
)
;

boundaryField
{
    rotor
    {
        type            calculated;
        value           uniform 0;
    }
    stator
    {
        type            calculated;
        value           uniform 0;
    }
    front
    {
        type            empty;
        value           nonuniform 0();
    }
    back
    {
        type            empty;
        value           nonuniform 0();
    }
    procBoundary2to0
    {
        type            processor;
        value           nonuniform List<scalar> 
20
(
-2.20793e-05
-2.21864e-05
-2.00357e-05
-1.88438e-05
-2.86234e-06
-2.11811e-06
-1.61906e-06
-1.27433e-06
-1.03096e-06
-8.51765e-07
-7.19529e-07
-6.16701e-07
-5.3933e-07
-4.76794e-07
-4.35603e-07
-4.20352e-07
-4.60505e-07
-6.10003e-07
-9.24764e-07
-7.58305e-07
)
;
    }
    procBoundary2to3
    {
        type            processor;
        value           nonuniform List<scalar> 
20
(
2.1527e-05
2.20682e-05
2.00351e-05
1.88709e-05
2.89529e-06
2.14971e-06
1.6459e-06
1.29613e-06
1.04582e-06
8.61563e-07
7.22885e-07
6.16205e-07
5.32953e-07
4.68097e-07
4.21917e-07
4.03292e-07
4.35683e-07
5.65715e-07
8.12078e-07
2.74079e-07
)
;
    }
}


// ************************************************************************* //
