/*--------------------------------*- C++ -*----------------------------------*\
  =========                 |
  \\      /  F ield         | OpenFOAM: The Open Source CFD Toolbox
   \\    /   O peration     | Website:  https://openfoam.org
    \\  /    A nd           | Version:  6
     \\/     M anipulation  |
\*---------------------------------------------------------------------------*/
FoamFile
{
    version     2.0;
    format      ascii;
    class       volVectorField;
    location    "1500";
    object      U;
}
// * * * * * * * * * * * * * * * * * * * * * * * * * * * * * * * * * * * * * //

dimensions      [0 1 -1 0 0 0 0];

internalField   nonuniform List<vector> 
768
(
(-0.282118 -1.49977 3.86421e-19)
(-0.274168 -1.61701 -1.43366e-18)
(-0.325724 -1.49769 1.43902e-18)
(-0.381342 -1.35334 -1.57108e-18)
(-0.43567 -1.2627 0)
(-0.494229 -1.20451 1.93605e-18)
(-0.552349 -1.14281 0)
(-0.614898 -1.08951 2.41548e-18)
(-0.676867 -1.03131 -8.61684e-18)
(-0.741471 -0.977228 8.2793e-18)
(-0.80044 -0.915182 2.01228e-17)
(-0.862118 -0.857111 -6.46267e-18)
(-0.327561 -1.06288 7.84336e-20)
(-0.220482 -0.969718 -6.81514e-19)
(-0.168016 -0.75536 3.69794e-19)
(-0.15742 -0.614414 3.63418e-19)
(-0.164139 -0.541137 -8.42463e-19)
(-0.177834 -0.497727 -6.44228e-20)
(-0.196287 -0.465722 -9.98967e-19)
(-0.217477 -0.438687 -3.02322e-18)
(-0.240956 -0.413246 3.88337e-18)
(-0.265132 -0.38846 -1.29386e-18)
(-0.290057 -0.363251 3.60955e-21)
(-0.314762 -0.338112 1.53213e-19)
(-0.306609 -0.900486 -2.28738e-19)
(-0.135652 -0.727324 0)
(-0.0865189 -0.501418 0)
(-0.0780405 -0.38481 -1.63718e-19)
(-0.0824937 -0.329775 0)
(-0.0915 -0.298395 -1.90699e-19)
(-0.102929 -0.276012 4.74963e-19)
(-0.115858 -0.257354 1.15335e-18)
(-0.130008 -0.24021 -4.6558e-19)
(-0.144811 -0.22377 -1.29839e-18)
(-0.16012 -0.207524 -2.34382e-18)
(-0.17555 -0.191436 2.41491e-18)
(-0.200525 -0.915035 -3.00739e-19)
(-0.0554747 -0.692441 -1.57262e-19)
(-0.036123 -0.449592 1.67062e-19)
(-0.0398354 -0.337886 1.35984e-19)
(-0.0495675 -0.287678 0)
(-0.0611818 -0.258942 -7.07008e-19)
(-0.0736285 -0.237839 6.97257e-19)
(-0.0866406 -0.219825 0)
(-0.100159 -0.203275 1.07014e-18)
(-0.114023 -0.187531 -1.63716e-18)
(-0.128128 -0.172244 1.31088e-18)
(-0.142343 -0.157241 5.98639e-20)
(-0.0599549 -1.02048 3.53909e-19)
(0.0318187 -0.710684 2.89104e-19)
(0.0102523 -0.44509 -4.27129e-21)
(-0.00882861 -0.332433 0)
(-0.025246 -0.28255 -2.97155e-19)
(-0.0405799 -0.253381 5.92609e-19)
(-0.0556913 -0.231277 0)
(-0.0706404 -0.212161 -4.38473e-19)
(-0.0856812 -0.194553 -5.54767e-19)
(-0.100618 -0.177972 1.04746e-18)
(-0.115596 -0.161955 0)
(-0.130453 -0.146394 -1.33245e-18)
(0.154009 -1.07963 2.72229e-19)
(0.129732 -0.723701 3.47654e-20)
(0.059239 -0.447129 -1.45368e-19)
(0.022645 -0.333317 -5.27375e-19)
(-0.00112393 -0.282767 -6.67727e-20)
(-0.0208013 -0.252297 6.1842e-19)
(-0.038946 -0.228833 0)
(-0.056438 -0.208434 1.34032e-18)
(-0.0733978 -0.189817 -1.06353e-18)
(-0.0899687 -0.172316 1.06338e-18)
(-0.106136 -0.155588 -4.96128e-20)
(-0.122055 -0.139269 -1.09044e-19)
(0.408992 -1.10539 -2.59003e-19)
(0.241683 -0.728608 -1.56865e-19)
(0.113111 -0.445807 0)
(0.056803 -0.331499 5.32118e-19)
(0.0246534 -0.280022 -8.62422e-19)
(8.15529e-05 -0.24828 1.71582e-20)
(-0.0215662 -0.223739 -1.55126e-18)
(-0.0418105 -0.202555 7.01529e-20)
(-0.0608872 -0.1834 -9.74203e-19)
(-0.079112 -0.165463 -1.15059e-18)
(-0.0964939 -0.148369 1.31183e-18)
(-0.113349 -0.131587 -1.30003e-18)
(0.684786 -1.10559 1.26587e-19)
(0.366703 -0.723741 -9.69078e-20)
(0.172456 -0.437846 0)
(0.0937805 -0.323783 2.88367e-19)
(0.0518097 -0.2717 3.10836e-19)
(0.0216966 -0.239314 3.70134e-19)
(-0.00395043 -0.214443 -7.71395e-20)
(-0.0269897 -0.193324 -1.11227e-19)
(-0.0482562 -0.1743 -1.17878e-18)
(-0.0679235 -0.156619 -1.22577e-19)
(-0.0864298 -0.13959 -4.3733e-20)
(-0.103896 -0.122835 0)
(0.954908 -1.02114 2.53751e-19)
(0.50166 -0.701278 0)
(0.237137 -0.420148 0)
(0.132558 -0.307968 -2.81756e-19)
(0.0792854 -0.256486 3.17328e-19)
(0.0427453 -0.224734 -8.03711e-19)
(0.0129883 -0.200836 0)
(-0.0129087 -0.180771 1.03516e-18)
(-0.0360482 -0.162801 3.43759e-20)
(-0.0570077 -0.14597 1.16822e-18)
(-0.0762463 -0.129624 -1.27908e-18)
(-0.0940968 -0.113253 2.73285e-18)
(1.1534 -0.80172 7.33433e-19)
(0.641392 -0.642698 -1.18626e-19)
(0.304089 -0.384625 -4.21141e-19)
(0.170827 -0.280623 -7.31755e-19)
(0.105013 -0.233133 0)
(0.0617586 -0.204447 7.97255e-19)
(0.0280051 -0.183237 -1.92892e-18)
(-0.000355773 -0.165474 9.96536e-19)
(-0.0250032 -0.149402 1.1864e-18)
(-0.046851 -0.134076 0)
(-0.0664913 -0.118894 -1.30139e-18)
(-0.0843556 -0.103327 -2.71508e-18)
(1.20407 -0.437869 -6.73615e-19)
(0.751217 -0.500625 1.44259e-19)
(0.358816 -0.317028 4.03316e-19)
(0.202396 -0.237383 2.98248e-19)
(0.125783 -0.200837 -5.3091e-20)
(0.0768382 -0.17892 -1.43822e-18)
(0.0399896 -0.162489 1.8744e-18)
(0.00991916 -0.148238 4.27414e-18)
(-0.0156308 -0.134805 -3.32349e-18)
(-0.0378898 -0.121495 -2.43719e-18)
(-0.0575467 -0.10787 2.54932e-18)
(-0.0750875 -0.0934398 0)
(0.988399 0.102183 8.97814e-19)
(0.68947 -0.211958 3.38407e-19)
(0.366672 -0.20191 2.30751e-19)
(0.216553 -0.175563 9.32326e-19)
(0.137292 -0.160482 0)
(0.0860992 -0.149661 9.12618e-19)
(0.0480428 -0.139906 -2.08238e-18)
(0.0174535 -0.130058 -1.00823e-18)
(-0.00823647 -0.119734 -1.11704e-18)
(-0.0303628 -0.108758 2.40937e-18)
(-0.0496647 -0.0969264 1.26215e-18)
(-0.0665592 -0.0839167 4.02029e-18)
(-0.920545 -0.794487 -3.84296e-18)
(-0.983058 -0.734787 4.20693e-18)
(-1.03803 -0.668689 -1.42753e-17)
(-1.0914 -0.602984 4.37613e-17)
(-1.14375 -0.535674 -2.01078e-17)
(-1.2006 -0.470653 0)
(-1.24892 -0.403303 -1.22373e-17)
(-1.29573 -0.336503 9.42887e-18)
(-1.34447 -0.264752 0)
(-1.48383 -0.215905 1.95328e-20)
(-1.55083 -0.216075 0)
(-1.26403 -0.243135 -1.2194e-18)
(-0.339627 -0.312575 -7.5237e-18)
(-0.364173 -0.287281 3.9164e-18)
(-0.388434 -0.261374 4.49143e-18)
(-0.411999 -0.235579 -2.17065e-18)
(-0.435626 -0.210194 0)
(-0.459131 -0.186325 0)
(-0.483668 -0.164318 2.78623e-18)
(-0.514518 -0.146482 -2.82879e-18)
(-0.570171 -0.136606 0)
(-0.693362 -0.149121 1.21246e-18)
(-0.900621 -0.207409 1.03669e-19)
(-1.01983 -0.307987 -4.78886e-18)
(-0.191116 -0.175358 9.00098e-19)
(-0.206649 -0.159425 -1.94159e-18)
(-0.222251 -0.143562 0)
(-0.237867 -0.128024 -2.22193e-18)
(-0.253802 -0.112992 -2.43299e-18)
(-0.270344 -0.0988655 5.00608e-18)
(-0.28869 -0.0859618 -3.90951e-18)
(-0.312659 -0.0750642 0)
(-0.355941 -0.0685926 0)
(-0.457403 -0.0738397 0)
(-0.672185 -0.110203 -1.58458e-18)
(-0.906079 -0.239688 1.39907e-18)
(-0.156653 -0.142407 -7.43934e-19)
(-0.171049 -0.127712 6.73352e-22)
(-0.185606 -0.113139 0)
(-0.200453 -0.0987821 6.19981e-22)
(-0.215862 -0.084737 0)
(-0.232164 -0.0711539 0)
(-0.250201 -0.0581013 1.09851e-18)
(-0.272895 -0.0457214 -1.22595e-18)
(-0.311946 -0.0349986 1.40717e-18)
(-0.406138 -0.0286558 0)
(-0.618898 -0.034178 -1.43495e-18)
(-0.844957 -0.0803463 -6.00411e-18)
(-0.145383 -0.130978 2.94627e-18)
(-0.160328 -0.115698 -7.22086e-19)
(-0.175562 -0.100354 1.72512e-18)
(-0.191193 -0.0850382 1.00557e-18)
(-0.207631 -0.0696658 -2.78424e-18)
(-0.225171 -0.0543755 0)
(-0.244612 -0.039082 -1.06596e-18)
(-0.268395 -0.0237002 0)
(-0.307178 -0.00755916 0)
(-0.400636 0.0120203 1.07374e-18)
(-0.62542 0.0442438 -3.52152e-20)
(-0.914069 0.0541659 7.99334e-18)
(-0.137783 -0.123123 -1.55841e-18)
(-0.153545 -0.106888 -5.21009e-20)
(-0.169482 -0.0904195 0)
(-0.185986 -0.0735787 0)
(-0.203373 -0.0563426 -2.88196e-18)
(-0.222195 -0.038627 1.94849e-18)
(-0.243178 -0.020487 2.12712e-18)
(-0.268589 -0.00129709 1.17874e-18)
(-0.307897 0.021132 -2.64279e-18)
(-0.400331 0.0553726 -1.02053e-18)
(-0.635725 0.127774 0)
(-0.985198 0.225773 9.77997e-18)
(-0.129752 -0.114885 -2.96602e-18)
(-0.146038 -0.0978044 1.51385e-18)
(-0.162401 -0.0802033 1.7188e-18)
(-0.179281 -0.0617914 4.43294e-20)
(-0.197144 -0.0424743 2.09914e-20)
(-0.216634 -0.0221205 -1.97802e-18)
(-0.23863 -0.000558756 -3.15786e-18)
(-0.265147 0.0230777 -1.12306e-18)
(-0.305022 0.0521 1.31335e-18)
(-0.396287 0.101113 0)
(-0.632143 0.212383 3.49063e-18)
(-0.982246 0.412962 -5.94894e-18)
(-0.120734 -0.105806 2.96482e-18)
(-0.137107 -0.0882062 -1.50147e-18)
(-0.153455 -0.0695951 -1.64839e-18)
(-0.170102 -0.0497813 -3.57016e-18)
(-0.187735 -0.0284266 3.67603e-18)
(-0.206998 -0.00535942 -4.03309e-20)
(-0.229 0.0198879 6.17124e-18)
(-0.256064 0.0482455 1.11989e-18)
(-0.295881 0.0846974 1.24479e-18)
(-0.384024 0.149121 0)
(-0.616877 0.299893 -2.13473e-18)
(-0.955711 0.597888 -5.16138e-18)
(-0.110915 -0.0963431 0)
(-0.127031 -0.0784681 1.54818e-18)
(-0.142788 -0.0592254 1.64322e-18)
(-0.158658 -0.0382417 -1.77541e-18)
(-0.175204 -0.0152063 -3.13053e-20)
(-0.193302 0.0104202 -1.89945e-18)
(-0.214091 0.0391792 -2.04702e-18)
(-0.239846 0.0727926 0)
(-0.278106 0.117187 -1.2222e-18)
(-0.361189 0.197952 -8.5549e-19)
(-0.583008 0.388041 4.7838e-18)
(-0.865778 0.761547 -3.79203e-18)
(-0.100814 -0.0868717 0)
(-0.116235 -0.0690915 0)
(-0.130978 -0.0495433 0)
(-0.145466 -0.0278735 -5.10392e-18)
(-0.160249 -0.00357024 3.47279e-18)
(-0.176065 0.0240058 3.71012e-18)
(-0.194084 0.0559597 0)
(-0.216695 0.0945478 -2.03443e-18)
(-0.250246 0.147218 0)
(-0.322041 0.244481 -1.51051e-18)
(-0.523486 0.476508 -8.60819e-19)
(-0.744461 0.927034 -2.88371e-18)
(-0.0908494 -0.07777 0)
(-0.105229 -0.0603942 0)
(-0.118585 -0.0409428 3.14875e-18)
(-0.131254 -0.01906 5.02736e-18)
(-0.143674 0.00583835 -1.12301e-20)
(-0.156331 0.0345596 1.78478e-18)
(-0.170067 0.0686877 -9.63481e-19)
(-0.186565 0.111231 2.97968e-18)
(-0.211155 0.170907 2.1103e-18)
(-0.263607 0.280972 1.42822e-18)
(-0.411 0.548008 -1.44054e-18)
(-0.598239 1.03472 -2.07908e-18)
(-0.0813431 -0.0693123 0)
(-0.094424 -0.0526393 0)
(-0.106145 -0.0336559 -3.11254e-18)
(-0.116762 -0.0120462 1.56108e-18)
(-0.126458 0.0126955 -1.74269e-18)
(-0.135356 0.04154 -1.76394e-18)
(-0.143611 0.076229 1.78162e-18)
(-0.151723 0.120228 0)
(-0.161493 0.182391 -2.06114e-18)
(-0.181596 0.293543 -1.19625e-18)
(-0.246689 0.570099 1.73241e-18)
(-0.300935 1.45825 -2.52231e-18)
(0.308372 0.569168 -2.88541e-19)
(0.462375 0.11569 1.73725e-19)
(0.316146 -0.0644599 0)
(0.206152 -0.105856 -3.69817e-19)
(0.136664 -0.117678 9.55855e-19)
(0.0885212 -0.11977 -1.5176e-18)
(0.051842 -0.11727 -5.12259e-20)
(0.0221291 -0.112022 2.21604e-18)
(-0.00287163 -0.104901 -1.13604e-18)
(-0.024364 -0.0963355 0)
(-0.042989 -0.0864195 -5.11215e-18)
(-0.0590025 -0.0750136 1.31942e-20)
(0.179091 0.400432 3.985e-19)
(0.299983 0.157543 -6.65338e-20)
(0.244329 0.00682011 1.10547e-18)
(0.178261 -0.0550343 -1.99175e-18)
(0.125892 -0.0816716 1.04173e-18)
(0.084973 -0.0929477 -1.07946e-19)
(0.0518818 -0.0963153 0)
(0.0242512 -0.095067 3.43244e-18)
(0.000631533 -0.0908615 -1.14981e-18)
(-0.0198357 -0.0845611 0)
(-0.0375487 -0.0765677 2.53109e-18)
(-0.0525606 -0.0669045 -2.64308e-18)
(0.0920903 0.265712 -1.63212e-19)
(0.192638 0.140541 5.36438e-20)
(0.182561 0.0353298 -1.0274e-18)
(0.147057 -0.0234693 1.00918e-18)
(0.110484 -0.0547154 -1.02174e-18)
(0.0777477 -0.0707994 3.19722e-18)
(0.0492287 -0.0780328 3.32729e-18)
(0.0243774 -0.0797825 -1.08938e-18)
(0.00257385 -0.077954 1.21561e-18)
(-0.0166235 -0.0736457 0)
(-0.0333539 -0.0674647 -2.53307e-18)
(-0.0474143 -0.0596409 0)
(0.0523506 0.184611 -6.50149e-19)
(0.127194 0.115462 -1.16488e-18)
(0.13584 0.043648 1.13127e-18)
(0.118672 -0.00553024 -5.4208e-19)
(0.0941142 -0.0358462 1.08551e-18)
(0.0687903 -0.0534813 -3.80151e-18)
(0.0449034 -0.0627524 -2.22549e-18)
(0.0230554 -0.0664372 2.2905e-18)
(0.00325848 -0.0663495 -3.49306e-18)
(-0.0145667 -0.0636467 0)
(-0.0304042 -0.059069 2.49017e-18)
(-0.0439 -0.0533932 -5.18078e-18)
(-0.0725356 -0.0617183 4.22587e-18)
(-0.0841221 -0.0459791 -1.42813e-18)
(-0.0940925 -0.0277467 0)
(-0.102602 -0.00686946 -3.16541e-18)
(-0.109547 0.0170314 0)
(-0.114651 0.0448624 0)
(-0.1172 0.078148 -1.75826e-18)
(-0.115709 0.119958 0)
(-0.107312 0.177023 0)
(-0.0836248 0.268825 6.08737e-20)
(-0.0115361 0.454143 1.42634e-18)
(0.403046 0.895593 1.06498e-18)
(-0.0645796 -0.0551679 -2.75694e-18)
(-0.0744993 -0.040475 0)
(-0.0827166 -0.0231697 0)
(-0.0892198 -0.00337239 -1.55368e-18)
(-0.0936911 0.0191632 1.5537e-18)
(-0.0954886 0.0450328 0)
(-0.0933524 0.0753084 -2.44497e-18)
(-0.0848028 0.111717 -8.40588e-19)
(-0.0648268 0.157251 0)
(-0.0223807 0.218203 -3.9633e-19)
(0.0747725 0.301733 -1.36721e-18)
(0.356595 0.324293 -3.23949e-19)
(-0.057513 -0.0498452 2.71817e-18)
(-0.0656017 -0.0361218 -1.42609e-18)
(-0.0721281 -0.0197886 -2.92927e-18)
(-0.076856 -0.00124616 1.46872e-18)
(-0.079286 0.019587 -3.03742e-18)
(-0.0785544 0.042973 0)
(-0.0732004 0.0694286 6.39567e-18)
(-0.0605716 0.0994065 0)
(-0.0360848 0.133078 8.25406e-19)
(0.00889311 0.169151 4.58404e-19)
(0.0925322 0.198684 6.52178e-19)
(0.243725 0.160769 -9.13963e-21)
(-0.051465 -0.0461221 -2.67611e-18)
(-0.0573837 -0.0328694 0)
(-0.0623035 -0.0173655 2.83656e-18)
(-0.0655498 -9.70327e-05 -4.35515e-18)
(-0.0663963 0.0188975 7.4016e-18)
(-0.0638999 0.0396611 -3.00414e-18)
(-0.0566272 0.0621967 -6.15943e-18)
(-0.0422941 0.0861135 0)
(-0.0173573 0.109986 0)
(0.023324 0.129902 0)
(0.0871408 0.134963 -7.78041e-19)
(0.172561 0.0905463 -5.74635e-19)
(0.0352497 0.133413 6.27592e-19)
(0.0885604 0.0913369 5.77391e-19)
(0.102027 0.0416106 -1.10414e-18)
(0.0945226 0.00270461 0)
(0.0781594 -0.0239345 5.52597e-19)
(0.0588199 -0.040831 1.69189e-18)
(0.0391332 -0.0505573 0)
(0.0202163 -0.0551328 2.30833e-18)
(0.00245575 -0.0560727 0)
(-0.0140191 -0.0544756 6.04318e-18)
(-0.0292759 -0.0513771 -2.47664e-18)
(-0.0433866 -0.0484185 6.44566e-18)
(0.023266 0.100539 -1.51575e-19)
(0.0629537 0.0739699 7.46273e-19)
(0.0776656 0.0387319 -1.15229e-18)
(0.0758171 0.00796705 -1.70579e-18)
(0.0651533 -0.0150185 -9.03293e-22)
(0.0504351 -0.0306769 -2.76e-18)
(0.0342459 -0.0403378 -3.40338e-18)
(0.0178886 -0.0453678 -3.43103e-18)
(0.00192353 -0.0469642 -4.6758e-18)
(-0.0135036 -0.0461761 -4.74508e-18)
(-0.0291993 -0.0444737 0)
(-0.0475053 -0.04613 0)
(0.0161785 0.0783605 6.13026e-19)
(0.0461497 0.0608385 -8.7286e-19)
(0.060002 0.0352668 1.41991e-18)
(0.0611056 0.0109141 -4.49099e-20)
(0.0542478 -0.00862117 2.24857e-18)
(0.043027 -0.0227237 1.12882e-18)
(0.029722 -0.031897 3.34595e-18)
(0.0156093 -0.03697 7.96403e-18)
(0.00126597 -0.0388189 3.44615e-18)
(-0.0133426 -0.0383699 -4.76526e-18)
(-0.0310658 -0.0379918 0)
(-0.0612461 -0.0468458 0)
(0.0117295 0.0627941 -1.20369e-18)
(0.0347433 0.0507235 2.88069e-19)
(0.0469994 0.0317314 -2.88055e-19)
(0.0495209 0.0123643 2.78073e-18)
(0.0451726 -0.00408976 -2.76396e-18)
(0.0365849 -0.0165427 -1.08284e-18)
(0.0256463 -0.0249718 -7.12321e-21)
(0.0135185 -0.0297789 1.16222e-18)
(0.000751156 -0.0315042 -4.58083e-18)
(-0.0129335 -0.0308039 4.80172e-18)
(-0.0334216 -0.0299559 -6.26785e-18)
(-0.090028 -0.0448628 0)
(-0.0468952 -0.0448218 -5.37884e-18)
(-0.0499767 -0.0304329 -1.37392e-18)
(-0.0533511 -0.0152008 1.3672e-18)
(-0.0553682 0.000958035 -1.40744e-18)
(-0.0549795 0.0182049 -1.47018e-18)
(-0.051221 0.0364751 3.6809e-20)
(-0.0427972 0.0554192 3.74283e-18)
(-0.0279091 0.074164 -7.46406e-19)
(-0.00420564 0.0905737 0)
(0.0308485 0.100124 0)
(0.07836 0.0936614 7.53577e-19)
(0.128836 0.0528023 7.21433e-19)
(-0.0446346 -0.0490295 1.15686e-17)
(-0.0431306 -0.0301277 0)
(-0.0450412 -0.0143614 0)
(-0.0462439 0.000794548 2.76798e-18)
(-0.0451766 0.0163352 -1.38246e-18)
(-0.0408794 0.0322189 1.44819e-18)
(-0.0323038 0.0479731 0)
(-0.0181621 0.0625252 -2.15388e-18)
(0.00293259 0.0736938 -7.25593e-19)
(0.031767 0.0775454 1.43593e-18)
(0.0668026 0.0674701 -8.83089e-19)
(0.098671 0.0340531 -1.72076e-19)
(-0.0451516 -0.0629132 -7.52927e-18)
(-0.0365644 -0.0316887 4.41566e-18)
(-0.0373488 -0.0139981 1.34123e-18)
(-0.0381819 0.000351049 1.36016e-18)
(-0.0368565 0.0143116 1.38594e-18)
(-0.0324722 0.0280607 0)
(-0.024253 0.0411294 6.99704e-19)
(-0.0113604 0.0524205 1.42377e-18)
(0.00687303 0.059984 7.02147e-19)
(0.0302835 0.0606401 -1.40882e-18)
(0.0564153 0.049958 6.93906e-19)
(0.0776616 0.0233378 -3.33934e-19)
(-0.0419557 -0.092231 1.3394e-17)
(-0.0284222 -0.033552 -6.93255e-18)
(-0.0298672 -0.0133657 -1.37702e-18)
(-0.0309718 1.02993e-05 -1.72342e-20)
(-0.0297439 0.0124115 -3.99754e-18)
(-0.0255753 0.0242595 -1.35117e-18)
(-0.0179833 0.035086 4.05322e-18)
(-0.0065093 0.0438798 0)
(0.00903787 0.0489774 2.71159e-18)
(0.0279811 0.0479466 0)
(0.0477814 0.037887 -1.33119e-18)
(0.0626377 0.0167698 6.53143e-19)
(0.00880941 0.0515161 2.94951e-19)
(0.0267507 0.0428551 -2.85283e-19)
(0.0372866 0.0284437 2.85276e-19)
(0.0403744 0.0129346 2.23904e-18)
(0.0376728 -0.000869924 2.22204e-18)
(0.0310669 -0.0117307 -2.19234e-18)
(0.0220726 -0.0193042 -1.10906e-18)
(0.0117268 -0.023672 -3.32367e-18)
(0.000625051 -0.0250282 9.03508e-18)
(-0.0112739 -0.0234607 0)
(-0.030552 -0.0187424 7.71767e-18)
(-0.0928319 0.00527716 0)
(0.00679334 0.0431174 2.90209e-19)
(0.0209906 0.0366975 0)
(0.0299326 0.0255338 0)
(0.0331288 0.0130066 2.00874e-20)
(0.0315069 0.00142626 -2.17882e-18)
(0.0263942 -0.00797576 -5.47758e-18)
(0.0190033 -0.0146873 -3.29488e-18)
(0.0102484 -0.0185685 0)
(0.000785213 -0.0195712 -4.44521e-18)
(-0.00918491 -0.0175514 1.2198e-18)
(-0.0257062 -0.0116686 4.13112e-18)
(-0.0763862 0.0203862 6.14156e-17)
(0.00535306 0.0367415 -2.85107e-19)
(0.0167295 0.0318286 2.77809e-19)
(0.024281 0.0230284 1.93357e-18)
(0.0273525 0.012818 -3.81678e-18)
(0.0264373 0.00308341 -3.25612e-18)
(0.0224606 -0.00503162 -5.69062e-19)
(0.016389 -0.0109386 6.4614e-18)
(0.00903257 -0.0143688 3.25827e-18)
(0.00106839 -0.015152 -4.38614e-18)
(-0.0070474 -0.013136 0)
(-0.0194958 -0.00787204 -8.0709e-18)
(-0.0557335 0.0170583 -9.81868e-20)
(0.00428072 0.0318045 5.59222e-19)
(0.0135156 0.0279654 0)
(0.0198821 0.020904 -2.16807e-18)
(0.022724 0.0124997 5.23897e-19)
(0.0222663 0.00428201 2.12711e-18)
(0.0191598 -0.00272024 9.04507e-18)
(0.0141737 -0.00790798 -5.32869e-18)
(0.00802239 -0.0109443 -5.32181e-18)
(0.00138029 -0.0116167 9.67788e-18)
(-0.0051724 -0.00981848 -4.64382e-18)
(-0.0142539 -0.00538328 0)
(-0.0392971 0.0126776 -4.68495e-17)
(0.00347975 0.0279443 -5.48545e-19)
(0.0110357 0.0248649 0)
(0.0164193 0.0191212 0)
(0.018984 0.0121372 1.58657e-18)
(0.0188237 0.00516436 5.276e-18)
(0.0163887 -0.000895532 -4.71132e-18)
(0.0122889 -0.00545678 4.18109e-18)
(0.00716823 -0.00817191 -4.19988e-18)
(0.00164317 -0.00880738 -8.44718e-18)
(-0.00362579 -0.00731274 -2.64666e-21)
(-0.0102889 -0.00372787 7.31827e-18)
(-0.0279582 0.00924072 0)
(0.00286647 0.0249234 2.68988e-19)
(0.00910286 0.0224272 -1.06437e-18)
(0.0136753 0.0176688 0)
(0.0159551 0.0118015 0)
(0.0159865 0.00582848 -4.65739e-18)
(0.0140674 0.00055785 -3.62175e-18)
(0.0106892 -0.00347966 0)
(0.00643581 -0.00593514 4.11795e-18)
(0.00183729 -0.00657605 3.10474e-18)
(-0.00241881 -0.00542453 5.50313e-18)
(-0.00735821 -0.00260601 -1.39293e-17)
(-0.0199843 0.00684516 8.52691e-17)
(0.00238909 0.0227812 7.95102e-27)
(0.00762586 0.0206976 1.31184e-18)
(0.0115417 0.0166758 -2.61617e-19)
(0.0135672 0.0116451 -5.15398e-19)
(0.0137141 0.00643495 1.02821e-18)
(0.0121786 0.00177204 3.57397e-18)
(0.00937266 -0.00187262 0)
(0.00581061 -0.00414515 0)
(0.00196078 -0.00484184 4.09912e-18)
(-0.00151918 -0.00401097 0)
(-0.00527481 -0.00185269 5.00591e-18)
(-0.0143785 0.0049265 -7.13108e-17)
(0.00207785 0.0220244 5.45679e-19)
(0.00659702 0.0202251 1.08472e-18)
(0.0100513 0.0166398 2.15342e-18)
(0.0118693 0.0121039 0)
(0.0120851 0.00732271 5.30135e-19)
(0.0108063 0.00298771 -1.58673e-18)
(0.00840031 -0.000483191 2.11092e-18)
(0.00533803 -0.00272197 -6.32547e-18)
(0.00202039 -0.00354009 -3.16639e-18)
(-0.000912557 -0.00301858 0)
(-0.00386733 -0.00137948 1.32589e-17)
(-0.0104457 0.00358203 7.82749e-17)
(0.00192788 0.0241624 -1.27922e-18)
(0.0061847 0.0224258 -1.27559e-18)
(0.00941217 0.0188475 -2.53372e-18)
(0.0111782 0.01424 6.27981e-19)
(0.0113988 0.00930802 -3.08749e-21)
(0.0102357 0.00476069 -6.2498e-19)
(0.00799389 0.0010043 0)
(0.00512936 -0.00150928 -5.22343e-21)
(0.00208404 -0.00265072 -1.24274e-18)
(-0.00060134 -0.00242807 1.16421e-17)
(-0.00306438 -0.00119109 -1.4673e-17)
(-0.0078732 0.00250803 -7.78037e-17)
(0.00209792 0.032705 9.77141e-19)
(0.00672431 0.0306809 -1.95758e-18)
(0.010154 0.0263169 3.89409e-18)
(0.0121341 0.0205792 0)
(0.0123185 0.0143471 0)
(0.011068 0.00844156 -5.75476e-18)
(0.00861419 0.00343003 5.72971e-18)
(0.00548366 -0.000109204 2.28711e-17)
(0.00228609 -0.00204101 1.52491e-17)
(-0.000542455 -0.00225731 1.95893e-18)
(-0.00277914 -0.00135716 -2.55058e-18)
(-0.00630418 0.00167151 0)
(0.00279077 0.0551272 0)
(0.00873505 0.0520111 4.42322e-18)
(0.0131658 0.0453577 -8.80187e-18)
(0.0157519 0.0365257 2.18286e-18)
(0.0159403 0.0266843 -2.18372e-18)
(0.0142536 0.0171108 1.73417e-17)
(0.0109811 0.00875702 -1.7285e-17)
(0.00688461 0.00253699 -3.44881e-17)
(0.00282871 -0.00128983 -3.4453e-17)
(-0.000613017 -0.00250897 -3.49123e-17)
(-0.00289015 -0.00198415 4.61739e-17)
(-0.0051225 0.000531179 -1.40978e-17)
(0.00392012 0.100058 1.67461e-17)
(0.0121114 0.0947944 -3.23808e-17)
(0.0184362 0.0838832 0)
(0.0222512 0.069248 -6.68191e-17)
(0.0226469 0.0524746 -6.78593e-17)
(0.0202786 0.0357698 0)
(0.0156396 0.0208848 1.69277e-17)
(0.00989195 0.00930908 -3.38515e-17)
(0.00432329 0.00155142 1.57188e-20)
(-0.000192212 -0.00198531 1.70087e-17)
(-0.00271876 -0.00253565 -2.91968e-16)
(-0.00379286 -0.000384233 0)
(0.010481 -0.0930461 -3.36017e-17)
(-0.0175883 -0.0301575 -1.06236e-17)
(-0.0227142 -0.0115319 6.94029e-18)
(-0.0246109 1.50617e-05 0)
(-0.023703 0.0107736 5.22251e-18)
(-0.0199131 0.0209056 1.31619e-18)
(-0.013062 0.0298685 -3.96616e-18)
(-0.00299442 0.0367548 -1.97699e-18)
(0.0101715 0.0401759 -3.32127e-18)
(0.0255494 0.0383183 0)
(0.0408089 0.029337 1.30548e-18)
(0.0516032 0.0125096 -3.1942e-19)
(0.0233368 -0.0749651 0)
(-0.0110325 -0.0250489 1.13813e-17)
(-0.0170197 -0.00933371 -6.89114e-18)
(-0.0192773 0.000258951 0)
(-0.0186495 0.00942008 3.80898e-18)
(-0.0152744 0.0180122 1.27619e-18)
(-0.00918192 0.0254338 -5.13281e-18)
(-0.000419293 0.0308531 1.66759e-20)
(0.010706 0.0331409 0)
(0.0232506 0.0309476 0)
(0.0352044 0.0231284 0)
(0.0433116 0.00960911 -3.1131e-19)
(0.0189341 -0.0545914 0)
(-0.00749826 -0.0189333 6.70723e-18)
(-0.0127914 -0.00719952 6.75319e-18)
(-0.0149625 0.000588604 0)
(-0.0144855 0.00829501 -3.7385e-18)
(-0.0114899 0.0155388 2.49406e-18)
(-0.006107 0.0216812 6.91311e-18)
(0.00148978 0.0259749 -1.24252e-18)
(0.0108964 0.0274893 -1.87554e-18)
(0.0212007 0.0252457 0)
(0.030711 0.0185193 -1.23442e-18)
(0.0369598 0.0075581 3.05226e-19)
(0.0144857 -0.0393891 0)
(-0.00511546 -0.0139357 -8.56635e-18)
(-0.00959555 -0.00536624 -1.05289e-17)
(-0.0115058 0.000912138 0)
(-0.0110779 0.00735078 -1.22058e-18)
(-0.0084105 0.0134369 -3.67674e-18)
(-0.00366269 0.0185218 4.89299e-18)
(0.00291721 0.0219461 2.45847e-18)
(0.0108954 0.0229394 1.12242e-20)
(0.0194169 0.0207858 3.0328e-19)
(0.0270839 0.0150387 1.05709e-18)
(0.0320164 0.00606449 -1.50122e-19)
(0.0111878 -0.0288062 1.24497e-17)
(-0.0035179 -0.0101862 -4.09095e-18)
(-0.00717281 -0.00389674 5.11643e-18)
(-0.00874798 0.00117127 1.19393e-18)
(-0.00830414 0.00653627 5.95868e-18)
(-0.00590597 0.0116455 -1.19304e-18)
(-0.00170711 0.0158522 -8.98098e-18)
(0.00400102 0.0186157 -5.24223e-22)
(0.0107963 0.0192423 2.39354e-18)
(0.0178986 0.0172814 -2.9722e-18)
(0.0241605 0.0123705 0)
(0.0281187 0.0049523 5.84248e-19)
(0.00880531 -0.0214315 0)
(-0.00241959 -0.00746423 -1.95259e-18)
(-0.00531985 -0.00277438 1.24496e-18)
(-0.0065485 0.0013507 0)
(-0.00604841 0.00582768 -3.5028e-18)
(-0.00386962 0.0101217 -4.67045e-18)
(-0.000125695 0.0136088 3.51942e-18)
(0.00484765 0.0158665 -5.84608e-19)
(0.0106895 0.0162421 5.84604e-19)
(0.016657 0.0145156 2.32965e-18)
(0.021818 0.0103084 0)
(0.0250594 0.00411299 -5.72871e-19)
(0.0069514 -0.0161847 9.09508e-17)
(-0.00167012 -0.00555348 1.3099e-17)
(-0.00392235 -0.00196229 -3.13035e-21)
(-0.00482457 0.00145502 1.15329e-18)
(-0.00423634 0.00522218 4.6014e-18)
(-0.0022026 0.00885904 5.76573e-18)
(0.0012 0.0117803 -1.15261e-18)
(0.00561099 0.0136506 0)
(0.01072 0.0138737 0)
(0.0158354 0.0123629 0)
(0.0201609 0.00874531 9.95703e-19)
(0.0228687 0.00349116 1.41755e-19)
(0.00548414 -0.0125101 -7.64484e-17)
(-0.00119163 -0.0043192 -1.67017e-17)
(-0.00293484 -0.00143481 0)
(-0.0035402 0.00150234 0)
(-0.0028005 0.00475849 -8.29425e-18)
(-0.000781026 0.00793064 4.74114e-18)
(0.00249092 0.0104426 -5.33355e-18)
(0.00660295 0.0120604 -5.91931e-18)
(0.0113111 0.0121781 5.91671e-19)
(0.0159094 0.0108654 -2.9354e-19)
(0.0196976 0.00764627 -8.78106e-19)
(0.0220766 0.00306399 -5.81214e-19)
(0.0041729 -0.00998053 0)
(-0.00102167 -0.00369143 -2.05205e-18)
(-0.00240932 -0.00117521 1.45709e-18)
(-0.00270345 0.00152028 1.39724e-18)
(-0.00166383 0.00457539 5.57074e-18)
(0.000666448 0.00750348 -5.57077e-18)
(0.0042118 0.0099043 4.17858e-18)
(0.00857077 0.0113377 1.11173e-17)
(0.0134345 0.0115024 0)
(0.0181134 0.0101618 3.44306e-19)
(0.0218046 0.00716887 -3.44225e-19)
(0.0241629 0.00288187 6.82698e-19)
(0.00280129 -0.00831994 0)
(-0.00129823 -0.00363296 -2.8484e-18)
(-0.00247707 -0.00121476 -3.07719e-21)
(-0.00231894 0.00157535 1.92316e-17)
(-0.00057455 0.00487661 -1.91908e-17)
(0.00278712 0.00797111 1.27895e-17)
(0.00750618 0.0106692 -1.06583e-18)
(0.0132254 0.012101 -1.06307e-17)
(0.0193836 0.0124271 1.06146e-18)
(0.025243 0.010778 4.22479e-18)
(0.0297165 0.00763514 0)
(0.032578 0.00308581 1.04525e-18)
(0.00103507 -0.00712145 0)
(-0.00245982 -0.00422446 0)
(-0.00355428 -0.00179062 0)
(-0.00254293 0.00156684 -3.86068e-17)
(0.000909934 0.00574504 8.19382e-17)
(0.00677118 0.00975251 -2.40824e-17)
(0.0146079 0.0133055 2.40312e-18)
(0.0238635 0.0151982 -2.40197e-18)
(0.0336535 0.0157065 0)
(0.0428418 0.0135265 -2.02813e-17)
(0.0497803 0.00952833 1.12864e-17)
(0.0542577 0.00392238 -2.95569e-18)
(-0.00151293 -0.00637893 2.78206e-16)
(-0.00596644 -0.00634561 0)
(-0.00759893 -0.00447295 -1.9095e-17)
(-0.00529597 -0.000334004 1.70895e-16)
(0.00110949 0.00536557 -1.32838e-16)
(0.0114138 0.0110755 -3.79252e-17)
(0.0249121 0.0163059 1.04058e-16)
(0.04071 0.0193146 -1.8888e-17)
(0.0574265 0.0204754 9.42761e-18)
(0.0733348 0.0178474 7.51214e-17)
(0.085686 0.0126978 -3.73964e-17)
(0.0940067 0.00541942 -1.8591e-17)
)
;

boundaryField
{
    rotor
    {
        type            fixedValue;
        value           nonuniform List<vector> 
48
(
(-0.00660572 -0.201784 0)
(-0.0197889 -0.20092 0)
(-0.0328873 -0.199195 0)
(-0.0458448 -0.196618 0)
(-0.0586061 -0.193198 0)
(-0.0711164 -0.188952 0)
(-0.0833222 -0.183896 0)
(-0.0951712 -0.178053 0)
(-0.106613 -0.171447 0)
(-0.117597 -0.164107 0)
(-0.128079 -0.156065 0)
(-0.138012 -0.147354 0)
(-0.147354 -0.138012 0)
(-0.156065 -0.128079 0)
(-0.164107 -0.117597 0)
(-0.171447 -0.106613 0)
(-0.178053 -0.0951712 0)
(-0.183896 -0.0833222 0)
(-0.188952 -0.0711164 0)
(-0.193198 -0.0586061 0)
(-0.196618 -0.0458448 0)
(-0.199195 -0.0328873 0)
(-0.20092 -0.0197889 0)
(-0.201784 -0.00660572 0)
(-7.70459e-10 -0.214625 0)
(-8.61102e-10 -0.239875 0)
(-9.51744e-10 -0.265125 0)
(-1.04239e-09 -0.290375 0)
(-1.13303e-09 -0.315625 0)
(-1.22367e-09 -0.340875 0)
(-1.31431e-09 -0.366125 0)
(-1.40496e-09 -0.391375 0)
(-1.4956e-09 -0.416625 0)
(-1.58624e-09 -0.441875 0)
(-1.67688e-09 -0.467125 0)
(-1.76752e-09 -0.492375 0)
(-0.214625 3.8523e-10 0)
(-0.239875 4.30551e-10 0)
(-0.265125 4.75872e-10 0)
(-0.290375 5.21193e-10 0)
(-0.315625 5.66514e-10 0)
(-0.340875 6.11835e-10 0)
(-0.366125 6.57157e-10 0)
(-0.391375 7.02478e-10 0)
(-0.416625 7.47799e-10 0)
(-0.441875 7.9312e-10 0)
(-0.467125 8.38441e-10 0)
(-0.492375 8.83762e-10 0)
)
;
    }
    stator
    {
        type            noSlip;
    }
    front
    {
        type            empty;
    }
    back
    {
        type            empty;
    }
    procBoundary2to0
    {
        type            processor;
        value           nonuniform List<vector> 
20
(
(-0.893795 0.402996 -5.17695e-19)
(-0.324279 0.354183 2.97187e-19)
(-0.160637 0.241213 1.1474e-22)
(-0.0905891 0.170446 -1.88146e-19)
(-0.0529179 0.127081 0)
(-0.0341482 0.0972139 1.67859e-19)
(-0.0234032 0.0764592 3.18527e-19)
(-0.0168055 0.0616496 -6.22782e-19)
(-0.0125262 0.0507978 1.26518e-21)
(-0.00960923 0.0426689 5.93682e-19)
(-0.00754705 0.0364547 -2.90599e-19)
(-0.0060359 0.0316355 2.83727e-19)
(-0.00490513 0.0278469 -5.55958e-19)
(-0.00403578 0.0248837 2.72361e-19)
(-0.00336294 0.0227786 7.95791e-27)
(-0.00290831 0.0220712 5.5227e-19)
(-0.00267789 0.0242742 -1.29711e-18)
(-0.00284592 0.0329887 9.93442e-19)
(-0.00365642 0.055695 0)
(-0.00529122 0.100801 8.82572e-18)
)
;
    }
    procBoundary2to3
    {
        type            processor;
        value           nonuniform List<vector> 
20
(
(0.571141 -0.30706 -5.10475e-20)
(0.403441 -0.179265 7.51825e-27)
(0.268683 -0.0929443 1.82926e-19)
(0.187133 -0.0532017 1.75067e-19)
(0.135566 -0.0360244 3.37849e-19)
(0.10238 -0.0239244 -4.90402e-19)
(0.079938 -0.0167254 -8.00981e-19)
(0.0641459 -0.0121989 1.10822e-18)
(0.0526662 -0.00921105 -3.09598e-19)
(0.0440955 -0.00714114 -6.10491e-19)
(0.0375613 -0.00565071 1.50925e-19)
(0.0324878 -0.00454018 0)
(0.0284982 -0.00369076 4.34306e-19)
(0.0253618 -0.00302786 -7.07526e-19)
(0.0231037 -0.0025082 4.18617e-27)
(0.0222458 -0.00213356 4.32062e-19)
(0.0242708 -0.00195726 -6.7428e-19)
(0.0325955 -0.00208597 0)
(0.0542173 -0.00264305 0)
(0.0946296 -0.00352601 -8.91532e-18)
)
;
    }
}


// ************************************************************************* //
