/*--------------------------------*- C++ -*----------------------------------*\
  =========                 |
  \\      /  F ield         | OpenFOAM: The Open Source CFD Toolbox
   \\    /   O peration     | Website:  https://openfoam.org
    \\  /    A nd           | Version:  6
     \\/     M anipulation  |
\*---------------------------------------------------------------------------*/
FoamFile
{
    version     2.0;
    format      ascii;
    class       volScalarField;
    location    "1000";
    object      nut;
}
// * * * * * * * * * * * * * * * * * * * * * * * * * * * * * * * * * * * * * //

dimensions      [0 2 -1 0 0 0 0];

internalField   nonuniform List<scalar> 
768
(
6.45013e-05
0.000163462
0.000170931
0.000175692
0.000173912
0.000176647
0.000173646
0.000176105
0.000173067
0.000178084
0.000184725
0.000185944
8.06217e-05
0.00048832
0.000977859
0.00128393
0.00141574
0.00146829
0.00148848
0.00149957
0.00150321
0.00150765
0.00150959
0.00151087
8.72676e-05
0.000642673
0.00171728
0.00272692
0.00324675
0.00343408
0.00349069
0.00350552
0.00350878
0.00351243
0.00351343
0.00351091
9.19201e-05
0.000706466
0.0020217
0.00333821
0.00401019
0.00423615
0.00429816
0.00431452
0.00431858
0.00431982
0.00431949
0.00431817
0.000104405
0.000770249
0.00220051
0.00356464
0.00421472
0.00441815
0.00447074
0.00448333
0.00448629
0.00448684
0.00448663
0.00448681
0.000116105
0.000837
0.00235228
0.00369879
0.00429046
0.00446292
0.00450557
0.00451517
0.00451721
0.00451838
0.00451856
0.00451735
0.000129726
0.000908688
0.00249337
0.00380806
0.00433594
0.00448159
0.00451624
0.00452327
0.00452458
0.00452538
0.00452375
0.00452278
0.000144669
0.000985888
0.00263124
0.0038967
0.00436936
0.00449312
0.00452065
0.00452588
0.0045272
0.00452836
0.00452723
0.00452526
0.000161837
0.00106254
0.00274891
0.00397057
0.00439543
0.00450211
0.00452417
0.00452852
0.00453053
0.00453033
0.00452885
0.00452777
0.000169533
0.00110913
0.00283947
0.00402054
0.00441358
0.00450809
0.00452762
0.00452904
0.0045285
0.00453059
0.00453026
0.00452982
0.000184186
0.00113122
0.00291268
0.00406429
0.00443007
0.00451204
0.00452842
0.00452901
0.00452828
0.00453001
0.0045307
0.0045303
0.00025641
0.00129471
0.00312053
0.00415655
0.00445387
0.00451738
0.00452904
0.00452961
0.00452784
0.00452869
0.00453007
0.00453083
0.000183992
0.00018502
0.000183358
0.000184446
0.000185834
0.000193213
0.000192536
0.000190699
0.000182123
0.000168049
0.000150855
6.40161e-05
0.00150942
0.00150949
0.00150863
0.00150883
0.00150982
0.00151283
0.00151489
0.00150439
0.00140807
0.00104015
0.000467702
8.06156e-05
0.00350782
0.00350614
0.0035048
0.00350266
0.00350321
0.00350618
0.00350737
0.00344506
0.00305808
0.00192028
0.000705817
8.76804e-05
0.00431696
0.0043162
0.00431527
0.00431435
0.00431437
0.00431446
0.00431462
0.00424444
0.00378728
0.00233588
0.000827697
9.6566e-05
0.00448726
0.00448712
0.00448657
0.00448632
0.00448592
0.00448549
0.00448549
0.00443012
0.0040158
0.00256723
0.000923091
0.00010814
0.00451726
0.00451824
0.00451804
0.00451752
0.00451768
0.00451752
0.00451714
0.0044738
0.0041289
0.00275001
0.00101299
0.000115534
0.00452344
0.00452396
0.00452346
0.00452393
0.00452439
0.00452405
0.00452375
0.00449134
0.00420547
0.00292738
0.00110989
0.00012847
0.0045254
0.00452609
0.00452529
0.00452538
0.00452614
0.00452688
0.00452716
0.00450184
0.00426582
0.00308489
0.00120919
0.000145366
0.00452709
0.00452761
0.00452734
0.00452652
0.00452709
0.00452745
0.0045271
0.00451088
0.00431288
0.00324256
0.00131763
0.000164886
0.00452835
0.00452888
0.00452928
0.00452844
0.00452983
0.00452981
0.00453008
0.0045189
0.00435687
0.00338981
0.00143613
0.000184222
0.00453037
0.00453077
0.00453044
0.00453069
0.00453095
0.00453077
0.00453048
0.00452213
0.00439451
0.00354327
0.00158538
0.00020622
0.00453162
0.00453261
0.00453345
0.00453347
0.00453236
0.00453167
0.00453225
0.00452724
0.00443424
0.00374341
0.00186347
0.000240371
0.00137211
0.00254973
0.00376806
0.00433381
0.00448924
0.00452563
0.00453246
0.0045324
0.00453121
0.00453224
0.00453228
0.00453231
0.00295737
0.00367503
0.00422608
0.00445416
0.00451643
0.00453105
0.00453247
0.00453068
0.0045304
0.00453344
0.00453469
0.00453263
0.004004
0.00425418
0.00443378
0.00451033
0.00453138
0.00453109
0.00452911
0.0045301
0.0045309
0.00453438
0.00453582
0.00453327
0.00439204
0.00445423
0.00450847
0.0045315
0.00453711
0.00453531
0.00453201
0.00453372
0.00453476
0.00453547
0.004535
0.00453485
0.00453226
0.00453187
0.00453281
0.00453302
0.00453153
0.00453401
0.00453479
0.00453
0.00448998
0.00415133
0.00283348
0.000893112
0.00453165
0.00453166
0.00453214
0.00453467
0.00453537
0.00453474
0.00453419
0.00453161
0.00451794
0.00439696
0.00380701
0.00252878
0.00453511
0.00453752
0.00453425
0.00453362
0.00453469
0.0045354
0.00453413
0.00453457
0.00453146
0.00449576
0.00431074
0.00384552
0.00453751
0.00453838
0.00453604
0.0045351
0.00453563
0.00453682
0.0045356
0.00453664
0.00453614
0.00452726
0.00447808
0.00435695
0.00450155
0.00451733
0.00453047
0.00453615
0.00453784
0.00453769
0.0045369
0.00453702
0.00453709
0.00453757
0.00453735
0.00449798
0.00452959
0.00453389
0.00453731
0.00453848
0.0045388
0.0045389
0.00453872
0.00453854
0.00453847
0.00453848
0.00448349
0.00421371
0.00453685
0.00453838
0.00453935
0.00453962
0.00453964
0.0045398
0.00453976
0.00453972
0.0045397
0.0045132
0.00421668
0.00316019
0.00453901
0.0045399
0.00453998
0.00454048
0.00454044
0.00454057
0.00454066
0.00454055
0.00453542
0.00442729
0.00348917
0.0015415
0.00448789
0.00452591
0.00453582
0.00453735
0.00453762
0.00453827
0.00453795
0.0045381
0.00453813
0.00453567
0.00452283
0.00449498
0.00418823
0.00444693
0.00452437
0.00453717
0.00453865
0.00453922
0.00453909
0.00453927
0.0045392
0.00453842
0.00453542
0.00452908
0.00308151
0.00412196
0.00447433
0.00453191
0.00453903
0.00454007
0.00453989
0.00454008
0.00454011
0.00453969
0.00453905
0.00453739
0.0014706
0.0034393
0.00436225
0.00451994
0.00453846
0.00454054
0.00454047
0.00454068
0.00454069
0.00454041
0.00454032
0.00453981
0.00454002
0.00454088
0.00454091
0.00454125
0.00454117
0.00454115
0.00454137
0.00454095
0.00452669
0.00428185
0.00258519
0.000336973
0.00454073
0.00454169
0.00454195
0.00454195
0.00454183
0.00454172
0.00454199
0.0045414
0.00452404
0.00423945
0.00244809
0.000298811
0.00454141
0.00454229
0.00454257
0.00454258
0.00454243
0.00454233
0.00454255
0.00454194
0.00452531
0.00424888
0.0024856
0.000306457
0.00454197
0.00454294
0.00454313
0.00454306
0.00454291
0.00454292
0.00454305
0.00454257
0.0045279
0.00427427
0.00256365
0.000320001
0.00454258
0.00454354
0.00454364
0.00454355
0.00454343
0.00454352
0.00454356
0.00454319
0.00453061
0.00430187
0.00264877
0.000332918
0.0045431
0.004544
0.00454404
0.00454401
0.00454394
0.00454404
0.00454404
0.00454374
0.00453306
0.00432769
0.00273339
0.000347092
0.00454296
0.00454368
0.0045437
0.00454369
0.00454361
0.00454371
0.0045437
0.00454346
0.0045344
0.00435005
0.00281453
0.00036129
0.00441783
0.0044011
0.00439916
0.00439889
0.00439888
0.00439892
0.00439902
0.00439896
0.00439175
0.00423205
0.00282144
0.000376076
0.00379103
0.003766
0.00376245
0.0037614
0.00376125
0.0037611
0.00376138
0.00376163
0.00375665
0.00363878
0.00257022
0.000387942
0.00231754
0.00228773
0.00228329
0.00228143
0.00228174
0.00228141
0.00228224
0.00228315
0.00228241
0.00224284
0.00179406
0.000380443
0.000850147
0.000837377
0.000835616
0.000833969
0.000833883
0.000833383
0.000833762
0.000834314
0.000834699
0.000830655
0.000757684
0.000337971
9.91485e-05
9.92378e-05
9.90001e-05
9.87003e-05
9.83398e-05
9.7976e-05
9.76133e-05
9.72324e-05
9.70136e-05
9.69145e-05
9.52333e-05
8.32325e-05
0.000336335
0.00260187
0.00422004
0.00450624
0.00453791
0.004541
0.00454122
0.00454142
0.00454138
0.0045411
0.00454118
0.00454082
0.000301652
0.00246274
0.00417903
0.00450195
0.00453815
0.00454166
0.00454203
0.00454205
0.00454196
0.00454172
0.00454183
0.00454159
0.000308463
0.00249168
0.00418998
0.00450412
0.00453887
0.0045423
0.00454261
0.0045425
0.00454245
0.00454239
0.00454248
0.00454234
0.000320003
0.00256191
0.00421792
0.00450878
0.0045399
0.00454281
0.00454306
0.00454306
0.00454299
0.00454301
0.00454305
0.00454287
0.000333665
0.00264192
0.00424857
0.00451379
0.00454097
0.00454329
0.00454353
0.00454365
0.00454358
0.00454358
0.00454358
0.0045434
0.000347615
0.0027227
0.00427795
0.00451846
0.00454196
0.00454379
0.00454403
0.00454419
0.00454411
0.00454405
0.00454403
0.00454388
0.000362106
0.00280157
0.00430398
0.00452177
0.00454204
0.00454355
0.00454373
0.0045438
0.00454379
0.00454369
0.0045437
0.00454358
0.000376894
0.00281606
0.00419352
0.00438184
0.00439886
0.00440029
0.00440053
0.00440058
0.00440053
0.00440059
0.00440047
0.00440011
0.000389784
0.00257124
0.00361524
0.00375165
0.00376426
0.00376578
0.0037663
0.00376658
0.00376657
0.00376647
0.0037661
0.00376853
0.000382839
0.00180199
0.00223617
0.00228471
0.00228981
0.00229124
0.00229216
0.00229229
0.00229238
0.00229207
0.00229137
0.00229174
0.000339136
0.000760547
0.000830723
0.000837794
0.00083892
0.000839661
0.000840214
0.000840139
0.000840722
0.000840054
0.000839476
0.000839293
8.3562e-05
9.54374e-05
9.69614e-05
9.70627e-05
9.71336e-05
9.72645e-05
9.74712e-05
9.76431e-05
9.82046e-05
9.83142e-05
9.80853e-05
9.81715e-05
)
;

boundaryField
{
    rotor
    {
        type            nutkWallFunction;
        Cmu             0.09;
        kappa           0.41;
        E               9.8;
        value           nonuniform List<scalar> 
48
(
1.1276e-05
2.82337e-05
2.87217e-05
2.89762e-05
2.89001e-05
2.90299e-05
2.88901e-05
2.90058e-05
2.88632e-05
2.90981e-05
2.94017e-05
2.94562e-05
2.93687e-05
2.94148e-05
2.934e-05
2.93889e-05
2.94515e-05
2.97763e-05
2.97465e-05
2.96661e-05
2.92825e-05
2.86207e-05
2.76089e-05
1.12109e-05
1.1276e-05
1.39398e-05
1.58951e-05
1.76966e-05
1.99582e-05
2.21462e-05
2.44203e-05
2.6742e-05
2.91504e-05
3.10567e-05
3.33062e-05
3.82239e-05
1.12109e-05
1.39237e-05
1.59113e-05
1.79746e-05
2.01773e-05
2.21121e-05
2.43537e-05
2.67953e-05
2.93309e-05
3.18113e-05
3.44013e-05
3.76e-05
)
;
    }
    stator
    {
        type            nutkWallFunction;
        Cmu             0.09;
        kappa           0.41;
        E               9.8;
        value           nonuniform List<scalar> 
48
(
2.27126e-05
2.27017e-05
2.26846e-05
2.26621e-05
2.26367e-05
2.2611e-05
2.25847e-05
2.25574e-05
2.25422e-05
2.25346e-05
2.23981e-05
2.13186e-05
2.1364e-05
2.24142e-05
2.25371e-05
2.25455e-05
2.25512e-05
2.2561e-05
2.25756e-05
2.25879e-05
2.26288e-05
2.26362e-05
2.2621e-05
2.26304e-05
5.53237e-05
5.51059e-05
5.68283e-05
5.87921e-05
6.0853e-05
6.29193e-05
6.50028e-05
6.70917e-05
6.90897e-05
7.01999e-05
6.88367e-05
2.1364e-05
5.53485e-05
5.49627e-05
5.67231e-05
5.8782e-05
6.081e-05
6.28879e-05
6.49588e-05
6.70485e-05
6.90002e-05
7.00749e-05
6.87007e-05
2.13186e-05
)
;
    }
    front
    {
        type            empty;
    }
    back
    {
        type            empty;
    }
    procBoundary1to0
    {
        type            processor;
        value           nonuniform List<scalar> 
20
(
0.00137459
0.00295181
0.0039975
0.00439222
0.00450176
0.00452972
0.00453698
0.004539
0.00454009
0.00454075
0.00454133
0.00454198
0.00454254
0.00454305
0.00454293
0.00441792
0.00379106
0.00231797
0.00084986
9.89843e-05
)
;
    }
    procBoundary1to3
    {
        type            processor;
        value           nonuniform List<scalar> 
20
(
0.000899387
0.00255547
0.00385514
0.00436005
0.00449537
0.00452921
0.00453764
0.00454001
0.00454107
0.00454173
0.00454237
0.00454294
0.00454351
0.00454396
0.00454361
0.00440014
0.00376861
0.00229197
0.000839479
9.81837e-05
)
;
    }
}


// ************************************************************************* //
