/*--------------------------------*- C++ -*----------------------------------*\
  =========                 |
  \\      /  F ield         | OpenFOAM: The Open Source CFD Toolbox
   \\    /   O peration     | Website:  https://openfoam.org
    \\  /    A nd           | Version:  6
     \\/     M anipulation  |
\*---------------------------------------------------------------------------*/
FoamFile
{
    version     2.0;
    format      ascii;
    class       volVectorField;
    location    "1000";
    object      U;
}
// * * * * * * * * * * * * * * * * * * * * * * * * * * * * * * * * * * * * * //

dimensions      [0 1 -1 0 0 0 0];

internalField   nonuniform List<vector> 
768
(
(0.194266 1.11155 0)
(0.165338 1.23356 0)
(0.188209 1.12805 -1.13042e-20)
(0.229362 1.02668 -5.3945e-18)
(0.277081 0.970312 9.89887e-18)
(0.326755 0.927908 -5.52923e-18)
(0.376467 0.885156 -3.65464e-18)
(0.425027 0.840943 -2.23671e-17)
(0.472469 0.795348 3.85231e-17)
(0.518868 0.749857 -1.50175e-17)
(0.564798 0.704368 1.19301e-17)
(0.610559 0.659619 6.53637e-18)
(0.168097 0.790273 -3.5132e-20)
(0.0818368 0.657297 -5.44335e-19)
(0.0695552 0.473052 9.70224e-20)
(0.0733631 0.375554 0)
(0.0836321 0.331238 1.10813e-18)
(0.0967421 0.306749 -1.68944e-18)
(0.111377 0.288093 0)
(0.126588 0.27108 0)
(0.142169 0.254453 0)
(0.15776 0.238105 5.88094e-21)
(0.173438 0.221832 -7.23693e-18)
(0.189161 0.205894 -2.18745e-19)
(0.0994358 0.710503 3.12438e-20)
(0.0369323 0.513213 0)
(0.0314422 0.327638 0)
(0.0348766 0.244466 -7.26168e-19)
(0.0415995 0.208871 4.41748e-19)
(0.0498724 0.189722 -1.05648e-18)
(0.0589951 0.175844 1.35662e-18)
(0.0685965 0.163728 0)
(0.0785279 0.152294 0)
(0.0886194 0.141235 -1.08804e-18)
(0.0988364 0.1304 -1.30946e-18)
(0.109147 0.119791 3.82445e-18)
(-0.00188615 0.711884 -2.35803e-19)
(-0.00701882 0.493099 -3.9542e-19)
(0.00659775 0.303592 1.42279e-19)
(0.0161287 0.223857 -2.61965e-19)
(0.0251483 0.190697 9.10472e-19)
(0.0344276 0.172305 -1.06578e-18)
(0.0439313 0.158482 -6.74177e-19)
(0.0536102 0.1463 -2.42336e-18)
(0.063405 0.134918 -2.00829e-19)
(0.0732686 0.124035 1.84504e-18)
(0.0831716 0.113493 2.23543e-18)
(0.0931261 0.103191 -2.23142e-18)
(-0.123595 0.728419 0)
(-0.0556882 0.493744 1.09832e-19)
(-0.0185502 0.301233 -2.01251e-19)
(-0.001285 0.222701 4.59851e-19)
(0.0110726 0.189844 7.61968e-20)
(0.0223708 0.170789 5.63694e-19)
(0.0334333 0.15599 6.71421e-19)
(0.044353 0.142901 7.75736e-19)
(0.0551612 0.130755 -1.85898e-18)
(0.0658283 0.119256 1.85893e-18)
(0.0763952 0.108186 -3.2957e-18)
(0.0868931 0.0973954 4.55017e-18)
(-0.260081 0.734944 -3.12267e-19)
(-0.108938 0.493525 7.77234e-20)
(-0.0458637 0.300088 4.0954e-19)
(-0.0199341 0.222642 0)
(-0.00375394 0.189594 -1.04453e-18)
(0.0100043 0.169584 1.16982e-18)
(0.0229526 0.153802 0)
(0.0354207 0.139912 -1.71696e-18)
(0.0474521 0.127154 1.71664e-18)
(0.0590953 0.115164 0)
(0.0704197 0.103666 -7.90388e-20)
(0.0815214 0.0924422 2.26142e-18)
(-0.415924 0.733301 0)
(-0.168849 0.48898 -3.44923e-19)
(-0.0761588 0.295687 2.78794e-19)
(-0.0403517 0.219513 0)
(-0.019668 0.186252 -5.97629e-19)
(-0.00300606 0.165491 -1.00515e-19)
(0.0121154 0.149116 1.38555e-18)
(0.0262545 0.13486 1.77007e-18)
(0.0395439 0.12191 -1.76974e-18)
(0.0521193 0.109788 2.04662e-18)
(0.0641073 0.0981666 -2.11776e-18)
(0.0756697 0.086748 -7.08334e-18)
(-0.598111 0.718068 0)
(-0.237851 0.476863 3.19586e-19)
(-0.110096 0.286189 -4.6391e-19)
(-0.0625046 0.211867 5.41734e-19)
(-0.036337 0.178772 0)
(-0.0162639 0.157882 -1.3281e-18)
(0.00128802 0.141581 1.64892e-18)
(0.0171423 0.12759 1.72661e-19)
(0.0316483 0.114947 -3.80402e-18)
(0.0450322 0.103122 -2.14345e-18)
(0.0575347 0.0917047 -8.43356e-20)
(0.069364 0.080378 4.73836e-18)
(-0.796167 0.668988 0)
(-0.318335 0.453733 -4.97226e-19)
(-0.147842 0.269525 -6.31802e-19)
(-0.0856729 0.19839 -5.32979e-19)
(-0.0529603 0.16654 1.34207e-18)
(-0.0290002 0.146626 0)
(-0.00895382 0.131369 0)
(0.0085603 0.118368 0)
(0.0241196 0.106606 0)
(0.0381493 0.0954902 2.0721e-18)
(0.0509709 0.084614 -2.29816e-18)
(0.06287 0.0736422 2.29837e-18)
(-0.924882 0.523983 0)
(-0.401941 0.406028 4.61425e-19)
(-0.186797 0.241143 -1.20308e-19)
(-0.108114 0.177474 6.71489e-19)
(-0.068115 0.149195 7.75767e-19)
(-0.0402389 0.131955 -1.59808e-18)
(-0.017891 0.118883 0)
(0.000985992 0.107656 3.77841e-20)
(0.017343 0.0972986 -5.90173e-18)
(0.0317751 0.0872659 0)
(0.0447037 0.0772095 4.48124e-18)
(0.0564598 0.0668346 -2.42047e-18)
(-0.935957 0.267609 0)
(-0.475889 0.319928 7.47002e-19)
(-0.219017 0.194424 1.56286e-18)
(-0.126147 0.14733 -1.33669e-18)
(-0.079842 0.126826 -2.23117e-18)
(-0.0488574 0.114472 4.04881e-18)
(-0.0248803 0.104781 2.38411e-20)
(-0.0051601 0.0959982 -1.8493e-18)
(0.011605 0.0874504 2.01619e-18)
(0.0261531 0.078786 -4.25976e-18)
(0.0389646 0.069776 -6.72632e-18)
(0.0503826 0.0601906 6.9744e-18)
(-0.870516 -0.00911991 -6.97016e-19)
(-0.455882 0.145875 -2.79801e-18)
(-0.22586 0.121669 5.55112e-19)
(-0.133904 0.107593 0)
(-0.0859206 0.100629 0)
(-0.0538993 0.095339 9.44836e-20)
(-0.0294846 0.089938 5.47913e-18)
(-0.00964451 0.0840122 3.7792e-18)
(0.00705984 0.0774974 0)
(0.0214197 0.0703617 4.21194e-18)
(0.0339021 0.0625424 0)
(0.0448092 0.0539043 9.76762e-21)
(0.656201 0.614459 -5.08354e-17)
(0.701892 0.569191 2.18833e-17)
(0.747853 0.523077 -2.46929e-17)
(0.794138 0.476307 -8.78894e-18)
(0.8403 0.428056 -9.3766e-18)
(0.885273 0.378486 0)
(0.927408 0.327381 0)
(0.963208 0.275097 2.2942e-17)
(1.00262 0.223255 -2.28792e-17)
(1.11948 0.185096 0)
(1.25136 0.165056 0)
(1.12941 0.19389 -1.90277e-20)
(0.205108 0.190063 5.55945e-18)
(0.221173 0.174375 0)
(0.237596 0.158684 9.7435e-21)
(0.254171 0.143015 3.45235e-18)
(0.270928 0.127225 1.84035e-18)
(0.287634 0.111582 8.04843e-18)
(0.30434 0.0962047 -1.23099e-17)
(0.322777 0.0816848 2.06903e-18)
(0.357011 0.069795 0)
(0.454606 0.066653 0)
(0.652869 0.0797129 0)
(0.794864 0.164325 8.93739e-18)
(0.119593 0.109307 1.53089e-18)
(0.130165 0.0989278 -4.48399e-18)
(0.140936 0.0886049 1.6478e-18)
(0.151927 0.0783759 3.63326e-18)
(0.163201 0.0682519 -3.63587e-18)
(0.174749 0.0583513 0)
(0.186775 0.048795 0)
(0.200846 0.0396929 1.8381e-21)
(0.227684 0.0320115 1.27635e-18)
(0.304993 0.0286472 0)
(0.495157 0.0342727 0)
(0.703877 0.0959256 -7.8481e-18)
(0.103161 0.0930363 -9.75657e-20)
(0.113336 0.0829665 3.96542e-18)
(0.12372 0.0729301 2.99534e-18)
(0.134407 0.0629238 -2.99603e-18)
(0.145507 0.0529641 0)
(0.157126 0.0431151 1.74352e-18)
(0.169417 0.0334254 0)
(0.183455 0.0238265 2.96241e-18)
(0.208031 0.0145702 -1.1209e-18)
(0.280779 0.005631 0)
(0.470746 -0.00747765 -2.38663e-18)
(0.691358 -0.0042124 1.19629e-17)
(0.0974105 0.0867388 -2.50251e-18)
(0.108035 0.0761113 0)
(0.1189 0.0654177 0)
(0.130147 0.054622 0)
(0.14197 0.0436907 0)
(0.154531 0.0326673 -3.4491e-18)
(0.168043 0.0215584 7.21815e-20)
(0.183344 0.0103167 -1.91853e-18)
(0.20798 -0.00150945 0)
(0.279363 -0.0174393 -1.68717e-18)
(0.471549 -0.0534465 2.22263e-18)
(0.702433 -0.115083 -4.6043e-18)
(0.0925233 0.0812953 8.95826e-20)
(0.103573 0.0700689 -5.28243e-18)
(0.114845 0.0586282 2.95476e-18)
(0.126553 0.0468648 1.84243e-19)
(0.138956 0.0347306 6.89989e-20)
(0.152335 0.0221717 5.26592e-18)
(0.167005 0.00925248 1.77967e-19)
(0.183786 -0.00419108 -5.74721e-18)
(0.209133 -0.0191849 -2.12631e-18)
(0.278923 -0.0429519 1.61755e-18)
(0.473187 -0.104309 -4.0585e-18)
(0.715253 -0.243345 -8.71807e-18)
(0.0869672 0.0753016 7.57491e-18)
(0.0982071 0.063619 2.76759e-18)
(0.109596 0.0515123 0)
(0.121414 0.03883 0)
(0.133978 0.025428 6.82739e-20)
(0.147711 0.0112172 -3.29442e-18)
(0.163066 -0.00386879 5.39935e-18)
(0.180922 -0.0200541 7.60564e-20)
(0.206973 -0.0388061 2.1199e-18)
(0.274744 -0.0710408 0)
(0.468507 -0.159968 8.14422e-20)
(0.71316 -0.381473 7.34722e-20)
(0.0807436 0.0688573 -2.4445e-18)
(0.0918959 0.056907 -2.68021e-18)
(0.103084 0.0442894 2.80866e-18)
(0.114588 0.0307964 -3.06426e-18)
(0.126818 0.0161927 -1.69327e-19)
(0.140236 0.000279011 6.51662e-18)
(0.155507 -0.0171972 -3.55236e-18)
(0.173793 -0.0365417 1.82955e-18)
(0.200118 -0.0599154 0)
(0.265074 -0.101778 1.44533e-18)
(0.456634 -0.22173 1.87199e-18)
(0.702592 -0.533218 -6.98453e-18)
(0.0740977 0.0622838 2.57496e-18)
(0.0849066 0.0502675 -2.57488e-18)
(0.0955563 0.0373377 -2.80026e-18)
(0.10636 0.023217 -5.90718e-18)
(0.117695 0.00760033 6.15758e-18)
(0.130101 -0.00990835 -6.42845e-18)
(0.144331 -0.029733 0)
(0.161715 -0.0526393 -1.82375e-18)
(0.187062 -0.0814092 0)
(0.247586 -0.134072 0)
(0.42979 -0.286341 0)
(0.631001 -0.660915 3.03994e-18)
(0.067324 0.0558537 2.42103e-18)
(0.077548 0.0439881 -5.19993e-18)
(0.0873869 0.030965 5.43914e-18)
(0.0971251 0.0164828 5.63924e-18)
(0.107093 0.000136155 2.92957e-18)
(0.117745 -0.0186091 0)
(0.129815 -0.0405223 0)
(0.144731 -0.0668628 3.37937e-18)
(0.166827 -0.101439 0)
(0.219219 -0.165714 -1.22727e-18)
(0.38423 -0.352314 1.37805e-18)
(0.521127 -0.769152 -4.4643e-18)
(0.0606818 0.0497776 -4.90389e-18)
(0.0701252 0.0382645 5.15246e-18)
(0.0789472 0.0253878 -5.39021e-18)
(0.087361 0.0108374 -1.40277e-17)
(0.0955851 -0.00583222 5.80124e-20)
(0.103895 -0.0252764 2.22443e-20)
(0.112765 -0.0485586 -3.10362e-18)
(0.1232 -0.0775331 -3.34857e-18)
(0.138776 -0.117159 0)
(0.17673 -0.191481 3.22316e-18)
(0.306683 -0.408156 1.29685e-18)
(0.390785 -0.855866 -3.28834e-18)
(0.054381 0.0442235 1.04686e-20)
(0.0628911 0.0332346 0)
(0.0705579 0.0207187 0)
(0.0775128 0.00640307 2.71265e-18)
(0.0838106 -0.0101318 8.46764e-18)
(0.0894389 -0.0295843 -2.95686e-18)
(0.0943821 -0.0531321 9.27052e-20)
(0.0987524 -0.0829682 -1.47671e-18)
(0.10371 -0.124503 -1.60495e-18)
(0.116552 -0.19995 -2.00006e-18)
(0.170749 -0.415676 0)
(0.21237 -1.20453 2.1428e-18)
(-0.308238 -0.431104 2.97115e-19)
(-0.306712 -0.0693335 9.64681e-19)
(-0.195888 0.0373599 1.13946e-19)
(-0.127387 0.0648848 0)
(-0.0850538 0.0739773 1.75877e-18)
(-0.0549914 0.0763752 -1.73407e-18)
(-0.0316083 0.0753833 -5.52978e-18)
(-0.012448 0.0723217 -3.84883e-18)
(0.00372889 0.0678355 8.65378e-20)
(0.0176208 0.0622408 -2.07336e-18)
(0.0296014 0.0556753 4.42322e-18)
(0.0398668 0.0480999 -4.58526e-18)
(-0.139829 -0.257834 0)
(-0.1901 -0.0976102 0)
(-0.151896 -0.00550247 -8.52504e-19)
(-0.11087 0.0339008 1.8076e-18)
(-0.0784873 0.0516662 -4.45463e-18)
(-0.0527271 0.0594988 -2.82751e-18)
(-0.0315827 0.06204 3.72484e-18)
(-0.013774 0.061435 9.8378e-18)
(0.00150472 0.0587656 -1.99792e-18)
(0.0147223 0.0546078 0)
(0.026092 0.0492875 2.36372e-20)
(0.0356445 0.0428684 0)
(-0.066951 -0.166337 -2.66742e-19)
(-0.121668 -0.0870141 2.60614e-19)
(-0.11416 -0.0227835 1.90397e-18)
(-0.0920917 0.0144682 9.53122e-20)
(-0.0691455 0.0348318 1.79116e-18)
(-0.0483367 0.0455115 -1.22931e-19)
(-0.0300091 0.0503952 0)
(-0.0139388 0.0516298 -1.90023e-18)
(0.000204157 0.0504338 -2.00007e-18)
(0.0126318 0.0475431 6.33085e-18)
(0.0233847 0.0434121 -6.43853e-18)
(0.0322397 0.0382143 4.46802e-18)
(-0.0366402 -0.115192 -5.433e-19)
(-0.0800776 -0.0722223 1.01281e-18)
(-0.0853367 -0.0280776 8.11952e-20)
(-0.074726 0.00317605 -1.82967e-18)
(-0.0591605 0.022866 -3.79598e-18)
(-0.0429043 0.0344486 -1.01123e-19)
(-0.0274553 0.0405791 -3.88885e-18)
(-0.013255 0.0430161 1.99466e-18)
(-0.000356015 0.0429111 -1.99474e-18)
(0.0112538 0.0410464 -4.13297e-18)
(0.0214767 0.0379758 0)
(0.0298148 0.0341471 4.40035e-18)
(0.0485674 0.0393024 4.77435e-18)
(0.0560318 0.0289741 4.93396e-18)
(0.0624812 0.0169861 0)
(0.0679611 0.00317073 0)
(0.0723472 -0.012799 2.77333e-18)
(0.0753335 -0.0315298 -2.77235e-18)
(0.0763328 -0.054051 1.47135e-18)
(0.0741522 -0.0822899 4.4867e-18)
(0.0663439 -0.120391 0)
(0.0462399 -0.181886 0)
(-0.0190448 -0.314669 5.1948e-19)
(-0.372708 -0.599817 -1.4593e-18)
(0.0433336 0.0351061 -4.68939e-18)
(0.049658 0.0255123 -2.40217e-20)
(0.0548886 0.014148 0)
(0.0589767 0.001024 -2.6106e-18)
(0.0616502 -0.0140409 -6.85666e-20)
(0.0623791 -0.0314549 2.67884e-18)
(0.0601962 -0.0519074 0)
(0.0532543 -0.0764732 -2.7819e-18)
(0.0377576 -0.106846 0)
(0.00517293 -0.146617 -2.85117e-18)
(-0.0687904 -0.201217 -1.55403e-18)
(-0.255543 -0.218603 -1.14779e-26)
(0.0386873 0.0317031 5.82277e-21)
(0.0437823 0.0228399 -4.76141e-18)
(0.0478474 0.0121093 0)
(0.0507174 -0.000226898 4.98753e-18)
(0.0519927 -0.0141821 2.5916e-18)
(0.0510051 -0.0299369 4.94246e-20)
(0.046665 -0.0477879 -6.57387e-18)
(0.0370547 -0.0679549 8.07873e-18)
(0.018843 -0.0902311 -1.35198e-18)
(-0.0140207 -0.112949 6.09543e-18)
(-0.0723238 -0.128689 2.03467e-18)
(-0.163141 -0.097525 -3.30555e-19)
(0.0346535 0.0292571 1.35792e-17)
(0.0383544 0.0209125 0)
(0.0413311 0.0107054 0)
(0.0431979 -0.000836657 -4.90294e-18)
(0.0434132 -0.0135983 -4.94906e-18)
(0.0412502 -0.0275834 5.02534e-18)
(0.0356715 -0.042753 1.02689e-17)
(0.0250587 -0.0587394 -5.23844e-18)
(0.00697291 -0.0743007 2.55752e-18)
(-0.0218138 -0.0861264 -2.6079e-18)
(-0.0642549 -0.0858414 -1.27643e-18)
(-0.113326 -0.052248 -2.92258e-19)
(-0.0233877 -0.0839013 5.28666e-19)
(-0.0555611 -0.0581456 2.50405e-20)
(-0.0643488 -0.0273169 -1.90037e-18)
(-0.0598621 -0.00238011 0)
(-0.0494387 0.0150418 2.78044e-18)
(-0.0369166 0.026193 6.63793e-18)
(-0.024094 0.0326392 9.62247e-18)
(-0.0117219 0.0356517 0)
(-8.37617e-05 0.0362028 0)
(0.0107302 0.0350333 -2.07733e-18)
(0.0206058 0.0328585 2.07567e-18)
(0.0290237 0.0306537 -8.63104e-18)
(-0.0153724 -0.0639813 -2.56701e-19)
(-0.0396469 -0.0476564 7.67274e-19)
(-0.0491448 -0.0256281 -2.45673e-18)
(-0.0481531 -0.00582103 0)
(-0.0413218 0.00924611 3.83439e-18)
(-0.0317401 0.0195945 -3.77372e-18)
(-0.0211467 0.0259926 -1.87934e-18)
(-0.010416 0.0292881 3.05866e-20)
(7.11748e-05 0.0302354 -1.9671e-18)
(0.0102259 0.0295145 0)
(0.0203201 0.0280623 0)
(0.0311021 0.0285522 8.78278e-18)
(-0.0107272 -0.0504818 0)
(-0.0292219 -0.039557 -9.91247e-19)
(-0.0380969 -0.0234253 1.92606e-18)
(-0.0389055 -0.00768496 9.52565e-19)
(-0.0344796 0.00513763 -5.66495e-18)
(-0.0271421 0.0144635 2.8548e-18)
(-0.0184052 0.0205326 -5.74847e-18)
(-0.00913697 0.0238441 1.9466e-18)
(0.000274921 0.0249231 3.10261e-20)
(0.00984925 0.0243349 3.6414e-20)
(0.021187 0.0236542 -1.05598e-17)
(0.0401845 0.0285458 -1.09155e-17)
(-0.00783658 -0.0409149 0)
(-0.0221343 -0.0332533 1.98341e-18)
(-0.0299511 -0.0211554 0)
(-0.0316031 -0.00858453 3.82765e-18)
(-0.0287684 0.00223582 0)
(-0.0231251 0.0104793 1.90209e-18)
(-0.0159256 0.0160603 7.56404e-18)
(-0.00795982 0.0192002 -1.90314e-18)
(0.000392605 0.0202007 0)
(0.00928362 0.0194719 0)
(0.02246 0.0187538 -2.4358e-18)
(0.0630583 0.0278575 4.63057e-18)
(0.0313606 0.0281453 -8.89223e-18)
(0.0333528 0.0195282 -2.30416e-18)
(0.0353516 0.00951368 1.16028e-17)
(0.0364321 -0.00133532 -7.13232e-18)
(0.035861 -0.0129426 9.69278e-18)
(0.0329124 -0.0252281 -9.77971e-18)
(0.0266774 -0.0379241 -1.23743e-17)
(0.0159254 -0.0503301 0)
(-0.000841765 -0.0607885 -2.5131e-18)
(-0.0249272 -0.0658545 0)
(-0.0555429 -0.0590153 0)
(-0.0840119 -0.0299528 -5.63863e-19)
(0.0293541 0.0303364 0)
(0.0286191 0.0193493 0)
(0.0297627 0.00903731 -9.13552e-18)
(0.0303672 -0.00117432 2.31636e-18)
(0.0293818 -0.0116448 2.33369e-18)
(0.0261216 -0.0223157 5.31853e-20)
(0.0198685 -0.0328294 6.02539e-18)
(0.00978654 -0.0423643 3.57114e-18)
(-0.00492507 -0.049291 0)
(-0.0243839 -0.0507495 0)
(-0.0465985 -0.042341 -2.82949e-19)
(-0.0645399 -0.0193627 1.39882e-18)
(0.0294145 0.039566 0)
(0.0241965 0.0202935 -2.35812e-18)
(0.0245777 0.0087672 -6.73822e-18)
(0.0249917 -0.000883782 9.02771e-18)
(0.023868 -0.0102779 9.1238e-18)
(0.0205881 -0.019496 2.32656e-18)
(0.014642 -0.0281769 -3.46698e-18)
(0.00551934 -0.0354987 -3.51992e-18)
(-0.00707114 -0.0400381 4.59905e-18)
(-0.0226948 -0.0395861 0)
(-0.0391351 -0.0313759 2.7515e-19)
(-0.0511567 -0.0134627 8.06193e-19)
(0.0284291 0.0625913 -1.99931e-17)
(0.0191373 0.0214434 -1.06917e-17)
(0.0196452 0.00828019 8.96102e-18)
(0.0202161 -0.000672098 -1.10949e-17)
(0.0191662 -0.00899808 2.16547e-18)
(0.0160549 -0.0169168 0)
(0.0105832 -0.0240725 -1.08577e-18)
(0.00250609 -0.0297133 3.16642e-21)
(-0.00816591 -0.0326561 -3.38774e-18)
(-0.0207147 -0.0312767 0)
(-0.0331244 -0.0238753 -1.89891e-18)
(-0.0416106 -0.00985 -2.38644e-18)
(-0.00593119 -0.0339188 -5.00452e-19)
(-0.0171493 -0.0283199 -1.94527e-18)
(-0.0238532 -0.0190467 0)
(-0.0258292 -0.00892847 -3.75401e-18)
(-0.0240398 0.000175702 -9.35783e-19)
(-0.0196746 0.00737951 -4.65671e-18)
(-0.0137429 0.0124073 1.87208e-18)
(-0.00694329 0.0152749 0)
(0.000315465 0.0160783 0)
(0.00806423 0.0149001 2.0158e-18)
(0.0204407 0.0115933 8.83054e-18)
(0.0647706 -0.0115998 0)
(-0.00460787 -0.0286618 4.90761e-19)
(-0.0135349 -0.0244423 0)
(-0.0192177 -0.0171871 -3.79373e-18)
(-0.0212415 -0.00896757 9.30335e-19)
(-0.0201372 -0.00130219 -9.30369e-19)
(-0.0167401 0.00495478 5.56992e-18)
(-0.0118532 0.00942806 3.70559e-18)
(-0.00609398 0.0119975 -1.85571e-18)
(0.000101084 0.0126078 0)
(0.00659247 0.0111579 0)
(0.0168781 0.00684112 0)
(0.0539249 -0.0181668 0)
(-0.0036531 -0.0246452 -4.82375e-19)
(-0.0108421 -0.0213685 -2.36715e-18)
(-0.0156381 -0.0155913 4.1898e-18)
(-0.0175711 -0.00884776 0)
(-0.0169155 -0.00237239 0)
(-0.0142572 0.0030516 -1.64212e-17)
(-0.0102309 0.00700874 9.14514e-18)
(-0.00538606 0.00929955 0)
(-0.000168069 0.00978849 -1.85201e-18)
(0.00510416 0.00833453 3.8778e-18)
(0.0126906 0.00431738 -2.96653e-18)
(0.038884 -0.0144641 0)
(-0.00293956 -0.0215174 4.72959e-19)
(-0.00878957 -0.018923 1.86011e-18)
(-0.0128321 -0.0142426 -3.68231e-18)
(-0.0146091 -0.0086535 2.73911e-18)
(-0.0142476 -0.00315586 -2.71406e-18)
(-0.0121556 0.00154967 -1.83518e-18)
(-0.00884103 0.00504676 -1.25864e-17)
(-0.0047857 0.00709511 -1.80661e-18)
(-0.000432565 0.00753123 1.80875e-18)
(0.00380974 0.00624042 7.57811e-18)
(0.00927246 0.00287868 0)
(0.027385 -0.010622 0)
(-0.00239382 -0.0190642 0)
(-0.00719118 -0.0169594 0)
(-0.0105987 -0.0131137 3.61049e-18)
(-0.012198 -0.00843235 -3.57405e-18)
(-0.0120239 -0.00373566 -4.46827e-18)
(-0.0103755 0.000362794 1.68338e-17)
(-0.0076424 0.00345982 3.52479e-18)
(-0.00426679 0.00531017 8.87113e-18)
(-0.000649625 0.00573981 0)
(0.00275015 0.00468016 -7.39851e-18)
(0.0067135 0.00200869 -1.08387e-17)
(0.0194451 -0.00766264 0)
(-0.00197256 -0.0171115 0)
(-0.00592162 -0.0153846 4.47213e-19)
(-0.00879965 -0.0121729 -4.47217e-19)
(-0.010213 -0.0082122 8.78481e-19)
(-0.0101582 -0.00416822 1.31287e-17)
(-0.00885793 -0.000580035 -8.70662e-18)
(-0.00659986 0.00217492 1.74287e-18)
(-0.00380689 0.00386776 -6.96144e-18)
(-0.000804009 0.00431409 -1.75053e-18)
(0.00192278 0.00351223 1.80469e-18)
(0.00483204 0.0014463 1.03634e-17)
(0.0138875 -0.00553506 0)
(-0.00163195 -0.0155895 0)
(-0.00490459 -0.0141441 4.39417e-19)
(-0.00733801 -0.011422 -4.39423e-19)
(-0.00857294 -0.0080305 0)
(-0.0085928 -0.00450798 -7.73963e-18)
(-0.00756105 -0.00134089 -8.54405e-19)
(-0.00569503 0.00113779 -3.43061e-18)
(-0.00338676 0.0027063 -8.56705e-18)
(-0.000898145 0.00319085 6.8664e-18)
(0.00129629 0.00262907 0)
(0.00347169 0.00106859 1.98315e-17)
(0.00997246 -0.00391379 0)
(-0.00138744 -0.0146339 0)
(-0.00410839 -0.013407 4.31812e-19)
(-0.00619544 -0.0110284 3.00888e-18)
(-0.0072622 -0.00804356 8.49957e-19)
(-0.00732355 -0.00489142 5.93583e-18)
(-0.00649473 -0.00202052 -1.68565e-18)
(-0.00492513 0.000268935 8.41317e-18)
(-0.00301465 0.00177726 1.34609e-17)
(-0.000923333 0.00231623 6.74817e-18)
(0.000852579 0.00198341 1.73025e-18)
(0.00251894 0.000816232 -2.38331e-18)
(0.007163 -0.0027297 0)
(-0.00123717 -0.0151932 0)
(-0.00371267 -0.0140621 0)
(-0.00558032 -0.0117709 -3.72692e-18)
(-0.00657225 -0.00887384 0)
(-0.0066437 -0.00575317 1.25636e-20)
(-0.00590179 -0.00289463 -1.82942e-18)
(-0.00450814 -0.000532769 1.82928e-18)
(-0.00277268 0.00105401 -7.29637e-18)
(-0.000940721 0.00175316 -1.81741e-18)
(0.000630858 0.0016014 1.68211e-17)
(0.00196347 0.000714664 -1.99502e-17)
(0.00524165 -0.0018043 8.99259e-17)
(-0.00130036 -0.0198865 0)
(-0.00405078 -0.0186396 2.89843e-18)
(-0.00600544 -0.0158919 -5.75807e-18)
(-0.00711885 -0.0123283 1.42432e-18)
(-0.00717606 -0.0084616 -1.41957e-17)
(-0.00634338 -0.00484495 9.91468e-18)
(-0.00486071 -0.00176828 -1.12854e-17)
(-0.00292464 0.000362417 2.82009e-18)
(-0.00104001 0.00150922 -2.25357e-17)
(0.000636157 0.00156249 -2.00056e-17)
(0.00182093 0.000846329 -3.5423e-18)
(0.00410896 -0.00115887 -9.34724e-17)
(-0.00177808 -0.035147 0)
(-0.00555762 -0.0332084 -2.04278e-17)
(-0.00820363 -0.0287503 1.35126e-17)
(-0.0097034 -0.022898 0)
(-0.00971749 -0.016458 -3.32846e-18)
(-0.00851369 -0.0102855 -1.66171e-17)
(-0.00641552 -0.0049051 -2.65547e-17)
(-0.00373619 -0.000971095 -1.32507e-17)
(-0.00122208 0.00141389 6.62274e-17)
(0.000907318 0.00204418 4.66056e-17)
(0.00210504 0.00141515 0)
(0.0033575 -0.000326154 0)
(-0.00294658 -0.075531 -1.21504e-17)
(-0.0090121 -0.0711207 -3.48793e-21)
(-0.0133545 -0.0624004 0)
(-0.0158133 -0.0508824 1.19497e-17)
(-0.0157841 -0.0378469 -1.20628e-17)
(-0.0136614 -0.0250107 -1.20028e-16)
(-0.0100477 -0.0136052 4.0725e-16)
(-0.00557561 -0.00486991 0)
(-0.00148998 0.000871083 -1.91555e-16)
(0.00170039 0.00321199 -1.91837e-16)
(0.00295393 0.00285498 -1.96157e-16)
(0.00300268 0.000699652 2.52323e-16)
(-0.0113422 0.0625606 4.65881e-17)
(0.0118967 0.0191766 1.27497e-17)
(0.0150076 0.0071189 -8.99848e-18)
(0.016038 -0.000654884 0)
(0.0151877 -0.00787863 -1.09109e-17)
(0.0123463 -0.0146317 -6.54442e-18)
(0.00741488 -0.0205245 5.5017e-18)
(0.000349742 -0.024895 3.26936e-18)
(-0.00864705 -0.0267774 0)
(-0.0188011 -0.0250055 5.34168e-19)
(-0.0283701 -0.0185717 1.59132e-18)
(-0.0345877 -0.00747958 1.03707e-18)
(-0.0168244 0.0505672 6.59577e-17)
(0.00715153 0.0155383 -3.3646e-18)
(0.0112085 0.00570187 1.10855e-17)
(0.0125247 -0.000774641 0)
(0.0118635 -0.00693006 0)
(0.00931505 -0.0126424 1.06916e-17)
(0.00492734 -0.0174956 6.38594e-18)
(-0.0012105 -0.0208984 -5.34395e-18)
(-0.00880061 -0.0220827 1.06312e-18)
(-0.0170703 -0.020214 4.70625e-18)
(-0.0245823 -0.0147073 -5.20665e-19)
(-0.0293029 -0.00583293 5.06541e-19)
(-0.0130162 0.0357537 -6.34655e-17)
(0.00458641 0.0114995 0)
(0.00834762 0.00430128 0)
(0.00966878 -0.000949977 0)
(0.00912448 -0.00612427 0)
(0.00684887 -0.0109254 1.03909e-17)
(0.00296693 -0.0149204 -1.9788e-17)
(-0.00235355 -0.0175863 5.18558e-18)
(-0.0087667 -0.018308 0)
(-0.0155719 -0.0164968 -4.10411e-18)
(-0.0215779 -0.0118231 -1.76561e-18)
(-0.0252452 -0.00464177 -7.46931e-19)
(-0.00941322 0.0249027 6.1014e-17)
(0.00308703 0.00826975 1.55561e-17)
(0.00621642 0.00309745 -1.05607e-17)
(0.00738024 -0.00111867 8.10781e-18)
(0.00688353 -0.00542995 0)
(0.00484481 -0.00944771 2.0028e-18)
(0.00141243 -0.0127329 7.13158e-18)
(-0.00319928 -0.0148365 -6.09007e-18)
(-0.00864871 -0.0152534 1.01068e-18)
(-0.0142906 -0.0135836 -4.96408e-19)
(-0.0191605 -0.00962081 2.473e-18)
(-0.0220856 -0.00374914 0)
(-0.00676905 0.0174895 7.45743e-20)
(0.00215598 0.00587869 -1.18851e-17)
(0.00462267 0.00214017 1.03089e-17)
(0.00555931 -0.00124315 -1.78605e-17)
(0.00506219 -0.00481696 7.92845e-18)
(0.00322079 -0.00816995 -2.41315e-20)
(0.000174926 -0.0108673 -9.9109e-19)
(-0.00383416 -0.0125441 9.88105e-18)
(-0.00848976 -0.0127575 -9.86869e-19)
(-0.0132173 -0.0112709 0)
(-0.0172215 -0.00791441 2.39722e-19)
(-0.0195894 -0.00306582 -1.19199e-18)
(-0.0049001 0.0124078 -5.59419e-17)
(0.00153374 0.00415671 0)
(0.00341336 0.00141541 0)
(0.0041089 -0.00131063 9.7207e-18)
(0.00358199 -0.00426355 -1.74723e-17)
(0.00190413 -0.0070592 -9.72172e-18)
(-0.000818321 -0.00926635 9.72705e-19)
(-0.00431507 -0.0106257 -7.74503e-18)
(-0.00833184 -0.010697 9.6436e-19)
(-0.0123196 -0.00942808 -4.74698e-19)
(-0.015641 -0.00656635 7.09459e-19)
(-0.0175982 -0.00252703 -2.34224e-19)
(-0.00355106 0.0088708 -1.07326e-16)
(0.00109623 0.00293855 -2.45465e-17)
(0.00248995 0.000889308 3.9255e-18)
(0.00295721 -0.00131923 5.70622e-18)
(0.00238475 -0.0037605 1.52052e-17)
(0.000833824 -0.00608564 1.89898e-18)
(-0.00162604 -0.00789891 -1.89893e-18)
(-0.00470424 -0.00900714 0)
(-0.00820637 -0.00900052 0)
(-0.011616 -0.00792819 3.26567e-18)
(-0.0143886 -0.00549583 4.64573e-19)
(-0.0160301 -0.00210137 9.15108e-19)
(-0.00256451 0.00639757 1.02843e-16)
(0.000787263 0.00210653 -7.43553e-21)
(0.00179528 0.000530603 -1.53444e-17)
(0.00205593 -0.00128856 -2.23705e-17)
(0.00140889 -0.00331458 -7.45308e-18)
(-6.7905e-05 -0.00528 1.85931e-18)
(-0.00236523 -0.00676303 -2.78639e-18)
(-0.00513961 -0.00771665 9.27155e-19)
(-0.00829153 -0.00763133 7.35901e-18)
(-0.0112718 -0.00677999 -7.76815e-18)
(-0.0136393 -0.00465664 6.80467e-19)
(-0.0150544 -0.00176889 -1.1225e-18)
(-0.00178009 0.00467049 -8.63929e-17)
(0.000628534 0.00163098 1.91415e-17)
(0.00137361 0.000318371 1.6563e-17)
(0.00143416 -0.00126746 8.22501e-21)
(0.000639769 -0.00309477 0)
(-0.00094637 -0.0048185 8.04574e-18)
(-0.00329889 -0.00620186 1.00234e-18)
(-0.00609322 -0.00698344 -4.41415e-21)
(-0.00919893 -0.00697581 -1.69273e-17)
(-0.0121095 -0.00611947 3.95607e-18)
(-0.0142848 -0.00421918 0)
(-0.0156424 -0.00160021 9.71553e-19)
(-0.00114314 0.00360637 2.0434e-16)
(0.000679956 0.00150473 0)
(0.00128248 0.000252604 3.15654e-18)
(0.0010602 -0.00138645 4.66105e-17)
(-0.000142715 -0.00335876 2.79266e-17)
(-0.00234176 -0.00515663 -1.44039e-20)
(-0.00534592 -0.00675203 -4.63921e-18)
(-0.00894399 -0.00746065 1.3862e-17)
(-0.0127678 -0.00763439 1.22689e-17)
(-0.0163427 -0.00647128 5.32713e-18)
(-0.0189151 -0.00450825 7.57844e-19)
(-0.0205124 -0.00172417 0)
(-0.000395282 0.00289019 -1.27827e-16)
(0.00115156 0.00172273 0)
(0.00161881 0.00038482 0)
(0.00073217 -0.0017216 -5.83652e-17)
(-0.0017461 -0.00433116 -5.83199e-17)
(-0.00575751 -0.00681441 -2.91078e-17)
(-0.0110169 -0.00899488 -2.9018e-17)
(-0.0171408 -0.0100164 -5.42127e-17)
(-0.0235391 -0.0102788 -3.60405e-18)
(-0.0293774 -0.00857636 -1.60613e-17)
(-0.0335315 -0.00589801 1.77837e-18)
(-0.0360959 -0.00231147 0)
(0.000681986 0.00265428 -2.75596e-16)
(0.00278478 0.00275178 0)
(0.00305146 0.00133268 0)
(0.00044291 -0.0018145 2.6387e-17)
(-0.00528661 -0.00599165 -2.6367e-17)
(-0.0139214 -0.0101487 2.62623e-17)
(-0.0249067 -0.0138212 -2.6225e-17)
(-0.0374643 -0.0157122 1.04402e-16)
(-0.0504244 -0.0162191 0)
(-0.062059 -0.0135153 -5.80252e-17)
(-0.0704117 -0.00924743 -4.48134e-17)
(-0.07568 -0.00366771 1.2706e-17)
)
;

boundaryField
{
    rotor
    {
        type            fixedValue;
        value           nonuniform List<vector> 
48
(
(0.00660572 0.201784 -0)
(0.0197889 0.20092 -0)
(0.0328873 0.199195 -0)
(0.0458448 0.196618 -0)
(0.0586061 0.193198 -0)
(0.0711164 0.188952 -0)
(0.0833222 0.183896 -0)
(0.0951712 0.178053 -0)
(0.106613 0.171447 -0)
(0.117597 0.164107 -0)
(0.128079 0.156065 -0)
(0.138012 0.147354 -0)
(0.147354 0.138012 -0)
(0.156065 0.128079 -0)
(0.164107 0.117597 -0)
(0.171447 0.106613 -0)
(0.178053 0.0951712 -0)
(0.183896 0.0833222 -0)
(0.188952 0.0711164 -0)
(0.193198 0.0586061 -0)
(0.196618 0.0458448 -0)
(0.199195 0.0328873 -0)
(0.20092 0.0197889 -0)
(0.201784 0.00660572 -0)
(0 0.214625 0)
(0 0.239875 0)
(0 0.265125 0)
(0 0.290375 0)
(0 0.315625 0)
(0 0.340875 0)
(0 0.366125 0)
(0 0.391375 0)
(0 0.416625 0)
(0 0.441875 0)
(0 0.467125 0)
(0 0.492375 0)
(0.214625 3.8523e-10 -0)
(0.239875 4.30551e-10 -0)
(0.265125 4.75872e-10 -0)
(0.290375 5.21193e-10 -0)
(0.315625 5.66514e-10 -0)
(0.340875 6.11835e-10 -0)
(0.366125 6.57157e-10 -0)
(0.391375 7.02478e-10 -0)
(0.416625 7.47799e-10 -0)
(0.441875 7.9312e-10 -0)
(0.467125 8.38441e-10 -0)
(0.492375 8.83762e-10 -0)
)
;
    }
    stator
    {
        type            noSlip;
    }
    front
    {
        type            empty;
    }
    back
    {
        type            empty;
    }
    procBoundary1to0
    {
        type            processor;
        value           nonuniform List<vector> 
20
(
(-0.437172 0.311978 -5.83666e-19)
(-0.261437 0.142331 -2.90571e-19)
(-0.168998 0.0685905 -5.50294e-19)
(-0.117161 0.0376719 8.13167e-19)
(-0.0854465 0.0240681 -1.0684e-18)
(-0.065262 0.0158144 7.84342e-19)
(-0.0515678 0.0110065 5.22103e-19)
(-0.0418687 0.00800848 -1.02605e-18)
(-0.0347622 0.00603307 -1.28476e-21)
(-0.0294269 0.00466599 9.91998e-19)
(-0.0253381 0.0036849 -4.86817e-19)
(-0.0221562 0.00295926 -2.37305e-19)
(-0.0196465 0.00241111 -9.39501e-19)
(-0.017646 0.00198871 9.21216e-19)
(-0.0160691 0.00165687 2.24817e-19)
(-0.0150747 0.00139811 8.88007e-19)
(-0.0156251 0.00125192 -9.57675e-19)
(-0.0203681 0.00133377 -1.46015e-18)
(-0.0357106 0.00177876 2.56645e-18)
(-0.0751895 0.00288167 2.45793e-17)
)
;
    }
    procBoundary1to3
    {
        type            processor;
        value           nonuniform List<vector> 
20
(
(0.592223 -0.365042 -7.52237e-19)
(0.216492 -0.25035 0)
(0.0970104 -0.160232 -3.43594e-19)
(0.0520723 -0.11132 5.92258e-19)
(0.0298891 -0.0825019 -5.73412e-19)
(0.0192957 -0.0633376 -2.80954e-19)
(0.0133778 -0.0501683 0)
(0.00974735 -0.0407705 0)
(0.0073653 -0.0338597 5.12302e-19)
(0.00571508 -0.0286582 -5.02384e-19)
(0.00452568 -0.0246665 4.90782e-19)
(0.00363926 -0.02156 -4.81202e-19)
(0.0029604 -0.0191109 0)
(0.00243148 -0.0171644 0)
(0.00200736 -0.0156375 0)
(0.00168645 -0.0146952 0)
(0.00149766 -0.0152792 0)
(0.00159793 -0.0201182 0)
(0.00218462 -0.0356555 0)
(0.0035662 -0.0761847 1.25573e-17)
)
;
    }
}


// ************************************************************************* //
