/*--------------------------------*- C++ -*----------------------------------*\
  =========                 |
  \\      /  F ield         | OpenFOAM: The Open Source CFD Toolbox
   \\    /   O peration     | Website:  https://openfoam.org
    \\  /    A nd           | Version:  6
     \\/     M anipulation  |
\*---------------------------------------------------------------------------*/
FoamFile
{
    version     2.0;
    format      ascii;
    class       volScalarField;
    location    "2000";
    object      epsilon;
}
// * * * * * * * * * * * * * * * * * * * * * * * * * * * * * * * * * * * * * //

dimensions      [0 2 -3 0 0 0 0];

internalField   nonuniform List<scalar> 
768
(
151.632
132.651
148.731
160.383
156.892
163.111
163.181
172.332
171.543
171.224
167.134
168.503
169.997
83.4236
72.8933
66.8391
62.5507
60.6057
59.4726
59.3514
58.9612
58.5892
58.1936
58.1456
150.348
72.4923
49.4765
37.5914
32.1074
29.8237
28.9195
28.6114
28.4886
28.4321
28.398
28.3963
135.076
66.8999
42.1755
29.7629
24.4777
22.4273
21.6872
21.437
21.357
21.3355
21.3318
21.3352
129.26
64.6631
39.3707
27.2279
22.3168
20.499
19.8801
19.679
19.6217
19.603
19.6012
19.5983
122.943
62.2875
37.6203
26.0297
21.5008
19.8996
19.3674
19.2105
19.1602
19.1532
19.1433
19.1455
115.881
60.3121
36.3463
25.2436
21.064
19.6315
19.1784
19.041
19.0035
18.9935
18.9939
18.9869
114.201
59.3113
35.5162
24.6892
20.7627
19.4667
19.067
18.9489
18.9173
18.9108
18.9067
18.9053
106.743
59.4428
35.1216
24.3267
20.5483
19.3454
18.9834
18.8771
18.8513
18.8471
18.8362
18.8303
104.595
60.3148
35.1135
24.0936
20.3844
19.2441
18.9093
18.8128
18.7848
18.779
18.7729
18.7686
104.006
63.253
35.1234
23.8122
20.2085
19.1427
18.8389
18.7572
18.7365
18.7225
18.7135
18.7101
149.876
68.8533
33.6611
23.0306
19.9061
19.0128
18.7608
18.6958
18.6778
18.6735
18.6767
18.6719
162.005
160.988
165.539
170.218
166.997
167.587
166.549
167.379
154.675
140.739
117.423
143.791
57.871
57.9152
58.1622
58.4679
58.3074
58.2515
58.4356
59.8872
64.0355
72.7821
91.7002
158.655
28.3818
28.3853
28.4059
28.4456
28.4594
28.5269
28.9156
30.6004
35.9363
48.5398
75.5565
152.669
21.333
21.3324
21.3377
21.3501
21.3639
21.4197
21.7294
23.1096
27.7512
39.6201
65.8741
140.551
19.6005
19.5982
19.6015
19.6033
19.6125
19.65
19.8889
20.9976
24.9944
35.9637
61.5792
130.206
19.1397
19.1412
19.1356
19.1404
19.1414
19.173
19.3518
20.2485
23.6907
33.7297
58.4339
120.174
18.9847
18.9772
18.9739
18.9725
18.9759
19.0005
19.1446
19.8708
22.8339
31.9917
54.9128
120.219
18.9043
18.893
18.8882
18.8898
18.891
18.9134
19.0282
19.6254
22.2005
30.5971
52.9589
116.451
18.8338
18.8261
18.8252
18.829
18.8308
18.8486
18.9449
19.4372
21.6681
29.3947
50.6401
120.032
18.7742
18.7716
18.7731
18.778
18.7805
18.7954
18.8759
19.285
21.2076
28.2698
49.4428
119.559
18.7103
18.7164
18.7209
18.7215
18.7255
18.7449
18.8147
19.1484
20.7604
27.107
47.8187
124.16
18.6604
18.6538
18.6563
18.6634
18.6727
18.692
18.7514
19.0104
20.2735
25.6806
47.2587
142.679
67.0165
42.0096
27.3609
21.4209
19.4485
18.8544
18.6806
18.639
18.6349
18.632
18.6289
18.6154
36.7938
28.5864
22.7913
20.0451
19.0331
18.7058
18.6082
18.5917
18.5964
18.5779
18.5674
18.5681
25.1349
22.5679
20.3539
19.2094
18.7516
18.5924
18.5521
18.5455
18.5467
18.5342
18.5355
18.5627
20.824
20.0301
19.221
18.7706
18.5813
18.5092
18.4981
18.5056
18.4957
18.4923
18.5374
18.6516
18.6061
18.6047
18.6067
18.6091
18.6177
18.6352
18.6814
18.8534
19.6441
23.0895
36.4783
77.8135
18.5687
18.5618
18.5603
18.5658
18.5723
18.5845
18.6161
18.7165
19.1227
20.7918
26.6355
41.4425
18.5623
18.5342
18.5275
18.5298
18.5301
18.5414
18.5594
18.6142
18.7995
19.4946
21.6959
26.2903
18.6732
18.5602
18.5014
18.4958
18.4904
18.4916
18.5003
18.534
18.6177
18.8842
19.6575
21.0982
19.2863
18.995
18.7081
18.5454
18.4736
18.4442
18.4364
18.4369
18.4384
18.4775
18.7069
19.2546
18.7204
18.6026
18.4972
18.4355
18.4066
18.3937
18.3893
18.3901
18.4108
18.5819
19.4566
21.3832
18.5007
18.4409
18.3966
18.3732
18.3605
18.3543
18.3524
18.3572
18.4222
18.9349
21.4403
26.7733
18.4035
18.3626
18.3413
18.3305
18.3243
18.3209
18.3203
18.3328
18.4771
19.5847
24.9897
40.1476
19.3012
18.7774
18.5165
18.4487
18.4367
18.4394
18.4473
18.4658
18.503
18.6109
18.8911
19.3437
21.4712
19.5649
18.6736
18.4441
18.4009
18.3973
18.4012
18.4107
18.4285
18.4708
18.5688
18.7131
26.8468
21.43
19.0568
18.4815
18.3754
18.3614
18.3623
18.3672
18.3762
18.3931
18.4272
18.4758
40.6305
24.831
19.6682
18.552
18.3583
18.3309
18.329
18.3314
18.336
18.3428
18.3546
18.3747
18.3504
18.316
18.3023
18.2978
18.2946
18.2924
18.2926
18.3131
18.5399
20.2459
29.9707
89.7053
18.3142
18.2825
18.2726
18.2697
18.2682
18.2665
18.2672
18.2908
18.5489
20.4384
30.4436
67.0146
18.2858
18.2556
18.2472
18.2457
18.2448
18.2438
18.2445
18.2673
18.5185
20.3706
30.0531
63.0622
18.2625
18.2337
18.2272
18.2261
18.2255
18.2246
18.2252
18.2449
18.4722
20.2009
29.4571
61.533
18.2519
18.2256
18.2202
18.2194
18.2188
18.2184
18.2189
18.2355
18.4356
20.0207
28.8338
60.5288
18.3167
18.3003
18.2978
18.2972
18.297
18.2964
18.297
18.3104
18.4852
19.9332
28.3141
59.6316
18.7151
18.7215
18.7244
18.7251
18.7263
18.7252
18.7258
18.7356
18.8897
20.2157
28.1136
58.9316
20.1463
20.1885
20.2012
20.2043
20.208
20.2056
20.2061
20.2103
20.3464
21.5447
28.7355
57.815
23.838
23.8824
23.9008
23.9065
23.9107
23.9028
23.9044
23.8952
24.0098
25.0023
30.8777
55.1943
30.2381
30.1131
30.1183
30.1161
30.0997
30.0862
30.0789
30.0506
30.1207
30.6979
34.0269
48.9205
40.471
40.2712
40.2374
40.2035
40.1303
40.0859
40.059
39.9686
39.9897
39.9993
39.8419
37.0802
69.1889
68.7021
68.436
68.2192
67.9461
67.7121
67.4446
67.233
67.0706
66.7449
63.0643
44.77
89.7041
29.4844
20.2978
18.6174
18.3418
18.303
18.2992
18.3003
18.3028
18.3055
18.3099
18.3208
67.4054
30.0899
20.4986
18.6286
18.3207
18.2775
18.2727
18.2734
18.2746
18.2752
18.2764
18.2852
63.343
29.8115
20.4463
18.597
18.2951
18.2532
18.2487
18.2492
18.2501
18.2496
18.25
18.257
61.8598
29.3002
20.2906
18.5473
18.2696
18.2322
18.2281
18.2286
18.2289
18.2284
18.2282
18.2349
60.7379
28.7417
20.1172
18.5043
18.2566
18.2246
18.2213
18.2215
18.2219
18.2211
18.2214
18.2267
59.8052
28.2541
20.029
18.5466
18.3272
18.3
18.2967
18.2968
18.2963
18.296
18.2964
18.3017
58.9052
28.0568
20.296
18.9388
18.7424
18.7195
18.7149
18.7156
18.7138
18.715
18.7163
18.718
57.8139
28.6593
21.5917
20.3732
20.1966
20.1769
20.1685
20.1705
20.166
20.1711
20.1734
20.1724
55.4602
30.8193
25.0041
24.0062
23.8466
23.8403
23.8183
23.8301
23.8154
23.8353
23.8376
23.833
49.6552
34.1348
30.6862
30.0985
29.9923
29.9994
29.9816
29.9977
29.9876
30.0232
30.0166
30.0272
37.8287
39.901
39.9846
40.0048
39.9644
40.0357
40.0298
40.1033
40.0859
40.1982
40.1703
40.1971
44.9577
63.0596
66.6158
66.9956
67.2452
67.355
67.7879
68.0256
68.2693
68.4342
68.689
68.6723
)
;

boundaryField
{
    rotor
    {
        Cmu             0.09;
        kappa           0.41;
        E               9.8;
        type            epsilonWallFunction;
        value           nonuniform List<scalar> 
48
(
151.632
132.651
148.731
160.383
156.892
163.111
163.181
172.332
171.543
171.224
167.134
168.503
162.005
160.988
165.539
170.218
166.997
167.587
166.549
167.379
154.675
140.739
117.423
143.791
143.791
158.655
152.669
140.551
130.206
120.174
120.219
116.451
120.032
119.559
124.16
142.679
151.632
169.997
150.348
135.076
129.26
122.943
115.881
114.201
106.743
104.595
104.006
149.876
)
;
    }
    stator
    {
        Cmu             0.09;
        kappa           0.41;
        E               9.8;
        type            epsilonWallFunction;
        value           nonuniform List<scalar> 
48
(
69.1889
68.7021
68.436
68.2192
67.9461
67.7121
67.4446
67.233
67.0706
66.7449
63.0643
44.77
44.9577
63.0596
66.6158
66.9956
67.2452
67.355
67.7879
68.0256
68.2693
68.4342
68.689
68.6723
89.7041
67.4054
63.343
61.8598
60.7379
59.8052
58.9052
57.8139
55.4602
49.6552
37.8287
44.9577
89.7053
67.0146
63.0622
61.533
60.5288
59.6316
58.9316
57.815
55.1943
48.9205
37.0802
44.77
)
;
    }
    front
    {
        type            empty;
    }
    back
    {
        type            empty;
    }
    procBoundary3to1
    {
        type            processor;
        value           nonuniform List<scalar> 
20
(
66.9616
36.9953
25.2148
20.8494
19.2934
18.7217
18.5007
18.4031
18.3507
18.3146
18.2867
18.2632
18.2531
18.3175
18.7155
20.1454
23.833
30.2542
40.5611
69.5326
)
;
    }
    procBoundary3to2
    {
        type            processor;
        value           nonuniform List<scalar> 
20
(
76.5337
40.9591
26.159
21.061
19.3323
18.7084
18.4733
18.3726
18.3189
18.2834
18.2554
18.2332
18.2251
18.2999
18.7168
20.1723
23.836
30.0405
40.2199
68.4017
)
;
    }
}


// ************************************************************************* //
