/*--------------------------------*- C++ -*----------------------------------*\
  =========                 |
  \\      /  F ield         | OpenFOAM: The Open Source CFD Toolbox
   \\    /   O peration     | Website:  https://openfoam.org
    \\  /    A nd           | Version:  6
     \\/     M anipulation  |
\*---------------------------------------------------------------------------*/
FoamFile
{
    version     2.0;
    format      ascii;
    class       volScalarField;
    location    "2000";
    object      k;
}
// * * * * * * * * * * * * * * * * * * * * * * * * * * * * * * * * * * * * * //

dimensions      [0 2 -2 0 0 0 0];

internalField   nonuniform List<scalar> 
768
(
0.280331
0.435
0.500265
0.53853
0.538704
0.549818
0.556548
0.575242
0.568413
0.571884
0.569965
0.571741
0.392079
0.709664
0.847907
0.903603
0.923574
0.933513
0.938289
0.942448
0.94366
0.944911
0.944539
0.944705
0.388966
0.765935
0.907609
0.953609
0.968932
0.974504
0.976514
0.97744
0.977683
0.977788
0.977678
0.977644
0.395726
0.789043
0.923
0.962383
0.974943
0.97927
0.980726
0.981237
0.981389
0.981464
0.98142
0.98138
0.40481
0.801373
0.930737
0.9655
0.976318
0.979802
0.981005
0.981276
0.981449
0.981393
0.981419
0.981322
0.416488
0.815415
0.937256
0.967776
0.976585
0.979542
0.980248
0.980591
0.980467
0.980523
0.98034
0.980424
0.424832
0.829558
0.944613
0.969991
0.976963
0.97893
0.97949
0.979457
0.979371
0.979149
0.979078
0.979032
0.441296
0.846522
0.953795
0.972841
0.977279
0.978356
0.978514
0.978319
0.978095
0.977853
0.977669
0.977669
0.443927
0.85799
0.962982
0.976065
0.977779
0.977863
0.97758
0.977189
0.976904
0.976679
0.976459
0.976409
0.445519
0.860071
0.971756
0.979387
0.978331
0.977249
0.976504
0.975965
0.975656
0.975484
0.975326
0.975158
0.451646
0.860924
0.978525
0.982119
0.978659
0.976545
0.975375
0.974696
0.974331
0.974222
0.974191
0.97409
0.588701
0.915815
0.987284
0.983394
0.978071
0.975404
0.974075
0.973388
0.97304
0.972975
0.972865
0.97283
0.55978
0.555199
0.56254
0.573674
0.56395
0.568297
0.569003
0.55988
0.51992
0.472593
0.390765
0.265016
0.94365
0.943605
0.944223
0.945652
0.945538
0.945724
0.944146
0.936914
0.909628
0.835675
0.644493
0.353356
0.977511
0.977559
0.977647
0.977851
0.977879
0.977902
0.977359
0.974446
0.962299
0.918399
0.768322
0.392405
0.981346
0.981365
0.981376
0.981436
0.981464
0.98149
0.981218
0.979475
0.971455
0.938608
0.807503
0.402238
0.981382
0.981321
0.981368
0.981318
0.981402
0.98141
0.981363
0.980115
0.973981
0.945949
0.82053
0.407532
0.980271
0.980344
0.980202
0.980283
0.980229
0.980407
0.980352
0.979658
0.974877
0.950768
0.833451
0.41077
0.979042
0.97891
0.978877
0.978846
0.97886
0.978972
0.979265
0.97894
0.975627
0.956124
0.843616
0.420788
0.977675
0.977547
0.977384
0.977359
0.977434
0.977706
0.978089
0.978394
0.976755
0.961933
0.86487
0.432124
0.976401
0.976302
0.976275
0.976284
0.976352
0.976606
0.977166
0.9779
0.977998
0.969044
0.879759
0.464896
0.974953
0.974867
0.974904
0.974981
0.975186
0.975555
0.976281
0.977551
0.979442
0.975779
0.908021
0.492231
0.973797
0.973723
0.97386
0.973883
0.974031
0.974491
0.975307
0.976999
0.980499
0.984166
0.939157
0.539011
0.97267
0.972619
0.972801
0.972795
0.972915
0.973412
0.974262
0.976219
0.981043
0.99269
1.00268
0.640784
0.937028
0.998651
0.994658
0.982554
0.976556
0.974013
0.972815
0.972128
0.971942
0.971971
0.971899
0.971848
1.01111
1.0037
0.989358
0.978949
0.974386
0.972478
0.971534
0.970972
0.970886
0.970937
0.970844
0.970827
1.00203
0.991661
0.981121
0.975042
0.972278
0.970909
0.970211
0.970019
0.969913
0.969957
0.969982
0.969902
0.986276
0.980773
0.975103
0.97191
0.970473
0.969548
0.969013
0.968932
0.968894
0.968968
0.968888
0.968397
0.971724
0.971506
0.971467
0.971539
0.971724
0.972203
0.973034
0.974858
0.979522
0.992585
1.02606
0.92241
0.97054
0.970437
0.970639
0.970643
0.970666
0.970996
0.971692
0.973114
0.976486
0.985376
1.00947
1.02614
0.969487
0.969429
0.969586
0.969722
0.969774
0.96989
0.970405
0.971406
0.973485
0.9785
0.990499
1.00472
0.968053
0.968229
0.968424
0.968571
0.968713
0.968898
0.969291
0.969967
0.971137
0.973679
0.979136
0.986251
0.976634
0.973765
0.971009
0.969481
0.968721
0.968226
0.967938
0.967868
0.967831
0.967652
0.966707
0.964389
0.971546
0.969944
0.96863
0.967819
0.967413
0.967153
0.967014
0.966971
0.96688
0.966167
0.962555
0.953485
0.968825
0.967784
0.967053
0.966655
0.96644
0.966308
0.966244
0.966204
0.965948
0.96384
0.952656
0.922281
0.967246
0.966433
0.966011
0.965768
0.965653
0.965583
0.965546
0.965492
0.964909
0.960138
0.93248
0.832839
0.963894
0.966036
0.967254
0.967671
0.96786
0.968024
0.968278
0.968692
0.96938
0.970681
0.973072
0.976157
0.952662
0.961313
0.96553
0.966735
0.96706
0.967204
0.967363
0.967604
0.967989
0.968624
0.969652
0.970964
0.920398
0.950629
0.962653
0.965645
0.966276
0.966438
0.96654
0.966684
0.966889
0.967201
0.967644
0.968225
0.829875
0.929882
0.958385
0.964418
0.965539
0.965754
0.965828
0.96591
0.96601
0.966159
0.966342
0.966655
0.966213
0.965503
0.965197
0.965065
0.965008
0.964966
0.964942
0.96486
0.963895
0.955887
0.901348
0.581654
0.965452
0.964791
0.96457
0.964472
0.964445
0.964411
0.964393
0.96429
0.963102
0.953138
0.882207
0.454068
0.964841
0.964208
0.964022
0.963971
0.963953
0.963925
0.963909
0.963806
0.962578
0.952163
0.877266
0.437205
0.964315
0.963698
0.963551
0.963508
0.963497
0.963471
0.963458
0.96336
0.962201
0.952142
0.878683
0.438099
0.963796
0.963187
0.963052
0.963029
0.963016
0.962995
0.962985
0.962899
0.961852
0.952469
0.882001
0.443105
0.962953
0.962305
0.96219
0.962155
0.962148
0.962122
0.96212
0.962041
0.961107
0.95241
0.885204
0.447925
0.960421
0.959613
0.959459
0.95941
0.959409
0.959384
0.959398
0.959319
0.958483
0.950274
0.885654
0.452717
0.951818
0.950596
0.950337
0.950228
0.950234
0.950199
0.950235
0.950152
0.949368
0.941218
0.877492
0.450901
0.925563
0.923515
0.923028
0.922799
0.92276
0.922691
0.92278
0.922656
0.921941
0.913237
0.847725
0.434741
0.855425
0.852388
0.851495
0.850994
0.850806
0.850712
0.850753
0.850707
0.849989
0.840732
0.772266
0.392046
0.681361
0.677448
0.67595
0.675123
0.674663
0.674482
0.674344
0.674383
0.673809
0.665653
0.60234
0.308951
0.284713
0.283001
0.28195
0.281032
0.280139
0.279497
0.278705
0.27826
0.277663
0.274955
0.25157
0.157879
0.580163
0.899751
0.953663
0.963208
0.964845
0.965116
0.965179
0.965233
0.965283
0.965355
0.965434
0.965623
0.457821
0.880347
0.950549
0.962309
0.96425
0.964551
0.964604
0.964643
0.964662
0.964699
0.964721
0.964878
0.439074
0.874636
0.94936
0.961732
0.963733
0.964032
0.964082
0.96411
0.964128
0.964131
0.96414
0.964267
0.440308
0.875305
0.949332
0.961389
0.96329
0.963567
0.963603
0.963625
0.963634
0.963629
0.963623
0.963758
0.443819
0.878118
0.949715
0.961083
0.962825
0.963072
0.963104
0.963114
0.963127
0.963106
0.963108
0.963223
0.449087
0.881067
0.949806
0.960419
0.961989
0.96221
0.962227
0.962241
0.962236
0.962222
0.962212
0.962341
0.452491
0.881545
0.947818
0.957879
0.959302
0.959535
0.959526
0.959568
0.959528
0.959532
0.959525
0.959633
0.452133
0.873865
0.938982
0.948902
0.950256
0.950527
0.950492
0.950578
0.950491
0.950546
0.950512
0.950619
0.43753
0.845208
0.911284
0.921803
0.923037
0.923551
0.923371
0.923664
0.923409
0.92361
0.92352
0.923589
0.397814
0.771279
0.839499
0.850509
0.851931
0.852483
0.852451
0.852818
0.852551
0.852711
0.852828
0.852656
0.315315
0.603669
0.665671
0.675515
0.676928
0.677519
0.677773
0.678407
0.678166
0.67829
0.678764
0.678144
0.1583
0.251624
0.274618
0.277754
0.278928
0.27927
0.280555
0.281277
0.282143
0.282511
0.283545
0.283562
)
;

boundaryField
{
    rotor
    {
        type            kqRWallFunction;
        value           nonuniform List<scalar> 
48
(
0.280331
0.435
0.500265
0.53853
0.538704
0.549818
0.556548
0.575242
0.568413
0.571884
0.569965
0.571741
0.55978
0.555199
0.56254
0.573674
0.56395
0.568297
0.569003
0.55988
0.51992
0.472593
0.390765
0.265016
0.265016
0.353356
0.392405
0.402238
0.407532
0.41077
0.420788
0.432124
0.464896
0.492231
0.539011
0.640784
0.280331
0.392079
0.388966
0.395726
0.40481
0.416488
0.424832
0.441296
0.443927
0.445519
0.451646
0.588701
)
;
    }
    stator
    {
        type            kqRWallFunction;
        value           nonuniform List<scalar> 
48
(
0.284713
0.283001
0.28195
0.281032
0.280139
0.279497
0.278705
0.27826
0.277663
0.274955
0.25157
0.157879
0.1583
0.251624
0.274618
0.277754
0.278928
0.27927
0.280555
0.281277
0.282143
0.282511
0.283545
0.283562
0.580163
0.457821
0.439074
0.440308
0.443819
0.449087
0.452491
0.452133
0.43753
0.397814
0.315315
0.1583
0.581654
0.454068
0.437205
0.438099
0.443105
0.447925
0.452717
0.450901
0.434741
0.392046
0.308951
0.157879
)
;
    }
    front
    {
        type            empty;
    }
    back
    {
        type            empty;
    }
    procBoundary3to1
    {
        type            processor;
        value           nonuniform List<scalar> 
20
(
0.939779
1.0124
1.00252
0.986394
0.976648
0.971535
0.968814
0.967237
0.966226
0.965468
0.964874
0.964347
0.963841
0.962987
0.960457
0.951848
0.92557
0.855535
0.681751
0.285839
)
;
    }
    procBoundary3to2
    {
        type            processor;
        value           nonuniform List<scalar> 
20
(
0.925939
1.02497
1.00406
0.985893
0.975993
0.970863
0.968152
0.966587
0.965561
0.964817
0.964213
0.9637
0.963172
0.962284
0.959582
0.950565
0.923505
0.852418
0.677617
0.282361
)
;
    }
}


// ************************************************************************* //
