/*--------------------------------*- C++ -*----------------------------------*\
  =========                 |
  \\      /  F ield         | OpenFOAM: The Open Source CFD Toolbox
   \\    /   O peration     | Website:  https://openfoam.org
    \\  /    A nd           | Version:  6
     \\/     M anipulation  |
\*---------------------------------------------------------------------------*/
FoamFile
{
    version     2.0;
    format      ascii;
    class       volScalarField;
    location    "2000";
    object      nut;
}
// * * * * * * * * * * * * * * * * * * * * * * * * * * * * * * * * * * * * * //

dimensions      [0 2 -1 0 0 0 0];

internalField   nonuniform List<scalar> 
768
(
4.66436e-05
0.000128384
0.00015144
0.000162743
0.000166473
0.0001668
0.000170835
0.000172813
0.000169511
0.000171908
0.000174934
0.000174596
8.13856e-05
0.000543325
0.000887671
0.00109943
0.00122731
0.00129411
0.00133229
0.00134687
0.00135928
0.00137153
0.00137977
0.0013814
9.05662e-05
0.000728341
0.00149844
0.00217718
0.00263163
0.00286582
0.00296763
0.00300526
0.00301972
0.00302637
0.00302933
0.0030293
0.00010434
0.000837565
0.00181796
0.00280068
0.00349486
0.00384831
0.00399148
0.00404228
0.00405869
0.00406338
0.00406373
0.00406275
0.000114099
0.000893832
0.00198026
0.0030813
0.00384408
0.00421488
0.00435678
0.00440374
0.00441815
0.00442186
0.00442251
0.0044223
0.000126982
0.000960724
0.00210154
0.00323835
0.00399215
0.00433955
0.00446523
0.00450483
0.00451553
0.00451769
0.00451834
0.00451859
0.000140173
0.00102691
0.00220948
0.00335449
0.00407811
0.00439332
0.00450226
0.00453443
0.00454258
0.00454291
0.00454216
0.0045434
0.000153472
0.00108738
0.00230529
0.00345
0.00413996
0.0044253
0.00451955
0.00454589
0.0045514
0.00455072
0.00454999
0.00455033
0.000166159
0.00111457
0.00237631
0.00352465
0.00418743
0.00444858
0.00453079
0.00455266
0.00455622
0.00455515
0.00455572
0.00455669
0.00017079
0.00110379
0.00242038
0.00358303
0.00422587
0.00446639
0.00453852
0.00455678
0.00456067
0.00456047
0.00456047
0.00455997
0.000176514
0.00105461
0.00245352
0.00364562
0.00426551
0.00448358
0.00454496
0.0045584
0.00456002
0.00456241
0.00456432
0.00456421
0.000208114
0.00109631
0.00260614
0.00377914
0.00432512
0.00450364
0.00455172
0.00456111
0.00456224
0.00456267
0.00456086
0.00456172
0.00017408
0.000172324
0.000172048
0.000174007
0.000171402
0.000173441
0.000174957
0.000168551
0.000157288
0.000142824
0.000117036
4.39598e-05
0.00138485
0.00138366
0.00137959
0.00137653
0.00137999
0.00138186
0.00137291
0.00131919
0.00116292
0.00086356
0.00040767
7.08291e-05
0.00303002
0.00302995
0.0030283
0.00302533
0.00302403
0.00301702
0.00297316
0.00279274
0.00231915
0.00156389
0.000703165
9.07738e-05
0.00406289
0.00406316
0.00406225
0.00406038
0.00405799
0.00404764
0.00398773
0.00373625
0.0030606
0.00200122
0.000890873
0.000103604
0.00442233
0.0044223
0.00442199
0.00442113
0.00441981
0.00441143
0.00435804
0.00411743
0.00341586
0.00223931
0.000984006
0.000114798
0.00451856
0.00451887
0.00451889
0.00451849
0.00451776
0.00451196
0.00446976
0.00426578
0.00361048
0.00241201
0.00106989
0.000126366
0.00454404
0.0045446
0.00454509
0.00454514
0.00454445
0.00453961
0.00450813
0.0043405
0.00375172
0.00257178
0.00116643
0.000132555
0.00455063
0.00455216
0.00455179
0.00455117
0.00455157
0.00454871
0.00452483
0.00438988
0.00386768
0.00272177
0.00127117
0.000144317
0.00455577
0.00455671
0.00455667
0.00455584
0.00455602
0.0045541
0.00453615
0.0044279
0.00397281
0.00287515
0.00137555
0.000162053
0.00455668
0.0045565
0.00455648
0.00455601
0.00455733
0.00455717
0.00454448
0.00445967
0.00407107
0.00303126
0.00150083
0.000182388
0.00456141
0.00455922
0.00455942
0.00455948
0.00455989
0.00455949
0.00455016
0.00448641
0.00416774
0.00321586
0.00166005
0.0002106
0.00456301
0.00456416
0.00456525
0.00456347
0.00456231
0.00456225
0.00455575
0.00451175
0.00427259
0.00345354
0.00191463
0.000259003
0.00117914
0.00213659
0.00325432
0.00405618
0.00441318
0.00452855
0.00455944
0.00456318
0.00456244
0.00456341
0.00456349
0.00456632
0.0025007
0.0031717
0.00386527
0.00430283
0.00448947
0.00455015
0.00456514
0.00456391
0.00456194
0.00456696
0.00456867
0.00456835
0.00359524
0.00392173
0.00425637
0.00445426
0.00453717
0.00456315
0.00456647
0.00456629
0.00456502
0.00456849
0.0045684
0.00456098
0.00420412
0.00432212
0.00445212
0.00452913
0.00456176
0.00457081
0.0045685
0.0045659
0.00456799
0.00456953
0.00455765
0.00452514
0.00456744
0.00456574
0.00456489
0.00456498
0.00456458
0.00456481
0.0045613
0.00453666
0.0043958
0.00384027
0.0025975
0.000984093
0.00456551
0.00456623
0.0045685
0.00456717
0.00456578
0.00456591
0.0045647
0.00455349
0.00448771
0.00420295
0.00344326
0.00228669
0.00455716
0.00456354
0.00456666
0.00456738
0.00456779
0.00456609
0.00456651
0.00456246
0.00453685
0.00442027
0.0040698
0.00345572
0.00451671
0.00454585
0.00456214
0.0045649
0.00456759
0.00456903
0.00457059
0.00456864
0.00455909
0.00451831
0.00438935
0.00414928
0.00445101
0.00449274
0.00453586
0.00456125
0.00457181
0.00457443
0.00457363
0.00457284
0.00457213
0.00456076
0.00449604
0.00434723
0.0045379
0.00455158
0.00456512
0.00457274
0.00457607
0.00457683
0.00457661
0.00457599
0.00456998
0.00452122
0.00428575
0.00382647
0.00456609
0.00457106
0.00457516
0.00457722
0.00457834
0.00457863
0.00457851
0.00457693
0.00455834
0.00441561
0.00380964
0.00285935
0.00457525
0.00457775
0.00457907
0.00457946
0.00457991
0.00458009
0.00457991
0.00457627
0.00453504
0.00423637
0.00313156
0.00155491
0.00433228
0.00447293
0.00454742
0.00456807
0.00457282
0.00457371
0.00457415
0.00457347
0.00457075
0.00455648
0.00451103
0.00443346
0.00380421
0.00425102
0.00449311
0.00456036
0.00457415
0.00457642
0.00457694
0.00457686
0.00457608
0.0045716
0.00455711
0.00453422
0.00283989
0.00379527
0.00437656
0.0045409
0.00457307
0.00457809
0.00457885
0.00457899
0.00457868
0.00457742
0.00457314
0.00456658
0.00152551
0.00313404
0.00420298
0.00451213
0.00457035
0.00457921
0.0045804
0.00458058
0.00458037
0.00458008
0.00457889
0.00457683
0.00457871
0.00458058
0.00458109
0.00458096
0.00458122
0.00458138
0.00458109
0.00457519
0.00451018
0.00406179
0.00243967
0.000339433
0.00458053
0.00458219
0.00458257
0.00458237
0.0045825
0.00458259
0.00458224
0.00457535
0.00450057
0.00400043
0.00230084
0.000276895
0.00458183
0.0045834
0.00458375
0.00458364
0.00458369
0.00458367
0.00458334
0.00457664
0.00450307
0.00400554
0.0023047
0.000272799
0.00458269
0.00458406
0.00458428
0.00458416
0.00458422
0.00458417
0.00458392
0.00457802
0.00451081
0.00403901
0.00235894
0.000280723
0.00458042
0.00458123
0.00458131
0.00458127
0.00458132
0.00458121
0.00458099
0.004576
0.00451649
0.00407816
0.00242817
0.00029194
0.00455621
0.00455417
0.0045537
0.00455354
0.0045535
0.00455341
0.00455325
0.00454916
0.00449741
0.00409556
0.00249073
0.000302815
0.00443581
0.00442685
0.00442474
0.00442412
0.00442383
0.00442386
0.00442384
0.0044208
0.00437711
0.00402023
0.00251105
0.000313002
0.00404721
0.00402838
0.00402366
0.00402211
0.00402142
0.00402161
0.00402182
0.00402027
0.0039868
0.0037007
0.00241162
0.000316494
0.00323432
0.00321405
0.00320819
0.00320584
0.003205
0.00320557
0.00320598
0.00320635
0.0031861
0.00300213
0.00209463
0.000308183
0.00217797
0.00217151
0.00216658
0.0021642
0.00216442
0.00216491
0.00216565
0.00216745
0.00215876
0.00207228
0.00157744
0.000282765
0.00103241
0.00102565
0.00102198
0.00102034
0.00102081
0.00102139
0.00102166
0.00102409
0.00102181
0.000996979
0.00081957
0.000231676
0.000105444
0.000104918
0.000104545
0.000104195
0.00010395
0.000103832
0.000103654
0.000103648
0.000103454
0.000101941
9.03182e-05
5.01074e-05
0.000337699
0.00247113
0.00403258
0.00448502
0.00456788
0.00458014
0.0045817
0.00458193
0.00458177
0.00458178
0.00458145
0.00458052
0.000279859
0.00231809
0.00396705
0.00447396
0.0045675
0.00458118
0.00458287
0.00458308
0.00458296
0.00458315
0.00458306
0.00458234
0.000273917
0.00230948
0.00396726
0.00447619
0.00456901
0.00458233
0.00458394
0.00458407
0.00458403
0.00458417
0.00458417
0.00458361
0.000282064
0.00235337
0.00399745
0.00448497
0.00457117
0.00458318
0.00458457
0.00458465
0.00458464
0.00458473
0.00458473
0.00458432
0.000291873
0.00241455
0.00403517
0.00449254
0.00457
0.00458038
0.00458151
0.00458157
0.00458159
0.00458158
0.00458153
0.0045813
0.000303505
0.00247274
0.00405371
0.0044761
0.00454452
0.00455335
0.00455432
0.00455445
0.00455452
0.00455446
0.00455427
0.00455417
0.000312831
0.00249283
0.00398366
0.00436026
0.00441904
0.00442659
0.0044276
0.00442783
0.00442787
0.00442763
0.00442726
0.00442785
0.000318231
0.00239809
0.00367511
0.00397763
0.00402389
0.0040301
0.00403148
0.00403182
0.00403198
0.00403144
0.00403067
0.0040318
0.000310654
0.00208616
0.00298909
0.00318563
0.00321554
0.00321998
0.00322169
0.00322215
0.00322235
0.00322106
0.00322013
0.00322123
0.000286839
0.00156844
0.00206699
0.002163
0.00217792
0.00218023
0.00218136
0.00218207
0.00218143
0.00217966
0.00218074
0.00217909
0.000236544
0.000821971
0.000997399
0.0010266
0.00103194
0.0010319
0.00103283
0.00103286
0.00103258
0.00103007
0.00103223
0.00102966
5.01649e-05
9.03642e-05
0.000101888
0.000103637
0.000104128
0.000104213
0.000104503
0.000104674
0.000104943
0.000104964
0.000105342
0.00010538
)
;

boundaryField
{
    rotor
    {
        type            nutkWallFunction;
        Cmu             0.09;
        kappa           0.41;
        E               9.8;
        value           nonuniform List<scalar> 
48
(
5.64627e-06
2.08717e-05
2.27323e-05
2.37598e-05
2.37644e-05
2.4055e-05
2.42293e-05
2.47075e-05
2.45338e-05
2.46223e-05
2.45734e-05
2.46186e-05
2.43126e-05
2.41945e-05
2.43836e-05
2.46677e-05
2.44197e-05
2.45309e-05
2.45489e-05
2.43152e-05
2.32654e-05
2.19612e-05
1.95189e-05
5.29415e-06
5.29415e-06
8.82124e-06
1.13288e-05
1.32249e-05
1.50181e-05
1.67554e-05
1.8681e-05
2.06607e-05
2.3312e-05
2.58485e-05
2.90295e-05
3.38986e-05
5.64627e-06
9.64051e-06
1.12517e-05
1.30688e-05
1.49487e-05
1.69097e-05
1.87956e-05
2.09312e-05
2.26736e-05
2.43776e-05
2.62279e-05
3.23516e-05
)
;
    }
    stator
    {
        type            nutkWallFunction;
        Cmu             0.09;
        kappa           0.41;
        E               9.8;
        value           nonuniform List<scalar> 
48
(
1.53701e-05
1.53067e-05
1.52676e-05
1.52335e-05
1.52002e-05
1.51762e-05
1.51466e-05
1.51299e-05
1.51076e-05
1.50057e-05
1.41016e-05
9.89009e-06
9.91186e-06
1.41037e-05
1.4993e-05
1.5111e-05
1.5155e-05
1.51677e-05
1.52157e-05
1.52426e-05
1.52748e-05
1.52885e-05
1.53268e-05
1.53275e-05
4.81082e-05
4.40918e-05
4.46678e-05
4.62602e-05
4.79776e-05
4.97992e-05
5.15207e-05
5.30223e-05
5.36383e-05
5.25281e-05
4.79021e-05
9.91186e-06
4.81719e-05
4.39024e-05
4.45685e-05
4.61396e-05
4.79377e-05
4.9733e-05
5.15338e-05
5.29487e-05
5.34643e-05
5.21385e-05
4.74001e-05
9.89009e-06
)
;
    }
    front
    {
        type            empty;
    }
    back
    {
        type            empty;
    }
    procBoundary3to1
    {
        type            processor;
        value           nonuniform List<scalar> 
20
(
0.00118705
0.00249344
0.00358731
0.0042
0.00444948
0.00453747
0.00456601
0.00457527
0.00457875
0.00458058
0.00458192
0.00458281
0.00458055
0.00455635
0.00443605
0.00404764
0.00323507
0.00217737
0.0010313
0.000105754
)
;
    }
    procBoundary3to2
    {
        type            processor;
        value           nonuniform List<scalar> 
20
(
0.00100822
0.0023084
0.00346848
0.00415358
0.00443459
0.00453443
0.00456652
0.00457672
0.00458038
0.00458222
0.00458349
0.00458421
0.00458121
0.00455409
0.00442767
0.00403134
0.00322023
0.00217691
0.00102747
0.000104902
)
;
    }
}


// ************************************************************************* //
