/*--------------------------------*- C++ -*----------------------------------*\
  =========                 |
  \\      /  F ield         | OpenFOAM: The Open Source CFD Toolbox
   \\    /   O peration     | Website:  https://openfoam.org
    \\  /    A nd           | Version:  6
     \\/     M anipulation  |
\*---------------------------------------------------------------------------*/
FoamFile
{
    version     2.0;
    format      ascii;
    class       volScalarField;
    location    "2000";
    object      p;
}
// * * * * * * * * * * * * * * * * * * * * * * * * * * * * * * * * * * * * * //

dimensions      [0 2 -2 0 0 0 0];

internalField   nonuniform List<scalar> 
768
(
0.773808
0.593543
0.460689
0.379728
0.341031
0.323094
0.323272
0.323489
0.33832
0.350688
0.375178
0.393231
0.770763
0.639402
0.480089
0.34357
0.299573
0.300301
0.321085
0.344096
0.373842
0.401751
0.434772
0.464224
0.605621
0.588702
0.414373
0.22311
0.161001
0.176656
0.222155
0.273038
0.327193
0.379047
0.431986
0.481663
0.435108
0.429977
0.273518
0.0904678
0.0417924
0.0772026
0.143739
0.216245
0.290029
0.360681
0.430175
0.49586
0.237673
0.28821
0.127013
-0.0292528
-0.0481193
0.0153304
0.0984454
0.189553
0.274004
0.359272
0.43653
0.514916
0.0437253
0.126632
-0.0183719
-0.138723
-0.114098
-0.0307091
0.0761588
0.17384
0.274307
0.361497
0.451832
0.53017
-0.161171
-0.0337553
-0.153338
-0.224311
-0.164757
-0.051868
0.0645346
0.176749
0.278601
0.37558
0.464356
0.550774
-0.381153
-0.200302
-0.277822
-0.288289
-0.186547
-0.0538038
0.0740752
0.190339
0.295604
0.392581
0.482588
0.567842
-0.605142
-0.368167
-0.378565
-0.322362
-0.181574
-0.0329548
0.0998805
0.2162
0.31994
0.414386
0.501823
0.584349
-0.841444
-0.528273
-0.446079
-0.313808
-0.142959
0.0117776
0.141716
0.25263
0.350657
0.439513
0.521999
0.599768
-1.05217
-0.626838
-0.424703
-0.242758
-0.0657639
0.0791437
0.196659
0.296628
0.385209
0.466355
0.541991
0.613706
-1.15427
-0.554172
-0.26323
-0.0912227
0.0500393
0.164863
0.261035
0.345315
0.422173
0.493909
0.561753
0.626495
0.418702
0.433697
0.449291
0.450861
0.452182
0.439715
0.423142
0.392376
0.352275
0.220372
0.0611605
0.0436113
0.495695
0.520651
0.543689
0.556973
0.566315
0.566139
0.560993
0.539327
0.472637
0.3064
0.136622
0.0993202
0.530863
0.575221
0.617006
0.651821
0.682699
0.705599
0.720213
0.710639
0.634563
0.439605
0.273684
0.27487
0.560033
0.620031
0.677547
0.730057
0.778708
0.821172
0.855247
0.866426
0.813997
0.63782
0.487736
0.530807
0.585874
0.65838
0.724131
0.790362
0.849833
0.909056
0.957679
0.996393
0.980589
0.849428
0.722129
0.796485
0.613239
0.686442
0.764682
0.833934
0.907654
0.972282
1.04096
1.0961
1.11919
1.03006
0.908984
1.03929
0.631872
0.712941
0.790579
0.868687
0.943908
1.02053
1.09494
1.16993
1.2157
1.15438
1.05817
1.2253
0.649773
0.729698
0.808701
0.886409
0.964885
1.04353
1.12609
1.20822
1.27321
1.25392
1.15505
1.35644
0.663509
0.740904
0.816713
0.892518
0.968795
1.04833
1.1324
1.22231
1.30385
1.30765
1.25301
1.44615
0.674362
0.746838
0.81757
0.888457
0.96029
1.03694
1.11984
1.21233
1.30658
1.35835
1.3182
1.52068
0.682503
0.748645
0.813042
0.876935
0.942772
1.01303
1.09142
1.18196
1.28357
1.35884
1.38271
1.53517
0.688697
0.747611
0.804599
0.860706
0.918938
0.980928
1.05084
1.13125
1.22619
1.32641
1.37862
1.53642
-0.335451
-0.207055
0.0126157
0.102509
0.180317
0.255564
0.326723
0.393982
0.458489
0.520519
0.580218
0.637618
0.380653
0.175146
0.223591
0.256585
0.292606
0.337914
0.387847
0.44003
0.493041
0.545945
0.59764
0.647836
0.625646
0.398975
0.36995
0.367461
0.380218
0.406078
0.440623
0.48074
0.524162
0.569144
0.613631
0.656092
0.718759
0.528289
0.468234
0.449246
0.448746
0.4623
0.486177
0.517023
0.552773
0.591162
0.629133
0.664427
0.693184
0.744761
0.793761
0.842261
0.892175
0.945563
1.00421
1.07001
1.14255
1.21415
1.24306
1.1747
0.696822
0.740574
0.781663
0.822748
0.864929
0.910146
0.958922
1.01232
1.06905
1.12858
1.17956
1.27887
0.700174
0.735638
0.769303
0.803509
0.839198
0.877256
0.918457
0.96306
1.01092
1.0622
1.11855
1.15495
0.704075
0.730275
0.756956
0.785254
0.815341
0.847423
0.882431
0.92032
0.961525
1.00604
1.04779
1.03592
0.757401
0.605263
0.539985
0.511901
0.504285
0.510578
0.527079
0.551033
0.580666
0.613921
0.646597
0.672172
0.766174
0.650217
0.590247
0.562548
0.552124
0.554163
0.565377
0.583923
0.60846
0.637697
0.665344
0.681772
0.76943
0.680368
0.629465
0.602778
0.591347
0.590606
0.597986
0.61209
0.632227
0.657793
0.681184
0.686489
0.77121
0.702391
0.659108
0.635321
0.623847
0.621308
0.625791
0.636027
0.65171
0.672183
0.685871
0.686075
0.711197
0.726944
0.747469
0.771287
0.796697
0.823931
0.853489
0.885545
0.919744
0.954586
0.981038
0.948801
0.721157
0.725612
0.741079
0.761459
0.783004
0.806054
0.8309
0.857525
0.884724
0.909473
0.920474
0.880135
0.731871
0.726321
0.736674
0.75381
0.771914
0.791116
0.811776
0.833391
0.854325
0.870571
0.871519
0.831529
0.741945
0.733494
0.735639
0.748076
0.762417
0.777926
0.794766
0.812038
0.82779
0.837799
0.833208
0.796626
0.772509
0.718868
0.683137
0.661832
0.650659
0.646938
0.649015
0.655783
0.666631
0.679306
0.679967
0.670461
0.773711
0.731744
0.702187
0.683838
0.673291
0.668858
0.668986
0.672792
0.679266
0.685689
0.677963
0.674114
0.774889
0.741995
0.718059
0.702187
0.692489
0.68751
0.686106
0.687357
0.690325
0.692623
0.684243
0.680588
0.776145
0.7505
0.731113
0.717873
0.70906
0.703863
0.701203
0.700409
0.70054
0.699966
0.69145
0.688244
0.777389
0.757569
0.74232
0.731297
0.723561
0.718237
0.714546
0.712041
0.709762
0.706798
0.698502
0.695078
0.77866
0.763705
0.751813
0.743108
0.736326
0.731151
0.726553
0.722677
0.718359
0.713454
0.704561
0.701429
0.77982
0.768829
0.760003
0.753249
0.747562
0.742626
0.737175
0.732273
0.726029
0.719588
0.71018
0.706785
0.780776
0.772911
0.766473
0.761366
0.756814
0.752072
0.746118
0.740353
0.732747
0.725174
0.715046
0.711616
0.781259
0.775292
0.770283
0.766734
0.762492
0.758671
0.751673
0.746284
0.737195
0.729817
0.719243
0.715653
0.781214
0.775583
0.771223
0.767644
0.76411
0.7599
0.753738
0.747784
0.73965
0.732105
0.722853
0.718809
0.780868
0.774781
0.770026
0.76612
0.762284
0.758041
0.752361
0.746655
0.739464
0.732496
0.724653
0.72076
0.780562
0.77418
0.769048
0.76477
0.760639
0.756304
0.750919
0.74535
0.738711
0.732003
0.724933
0.721354
0.761762
0.748191
0.738345
0.744342
0.754578
0.766636
0.779943
0.793393
0.804799
0.810317
0.802669
0.771256
0.761048
0.754879
0.739503
0.740814
0.747499
0.756415
0.76667
0.776871
0.78496
0.787357
0.778723
0.751597
0.756848
0.75207
0.738138
0.737173
0.741169
0.747379
0.754887
0.762275
0.767564
0.767854
0.758809
0.736376
0.751264
0.747146
0.735461
0.73315
0.735087
0.738958
0.744214
0.749214
0.752492
0.751291
0.742781
0.72361
0.746183
0.74244
0.732579
0.729219
0.729519
0.731293
0.734522
0.73739
0.738928
0.736789
0.728697
0.713254
0.741439
0.73816
0.729481
0.725236
0.724176
0.724082
0.725697
0.72666
0.727075
0.724113
0.717041
0.703993
0.737551
0.73447
0.726932
0.72146
0.719647
0.717457
0.717963
0.716884
0.716549
0.712812
0.706437
0.69637
0.734014
0.731155
0.724453
0.718238
0.715742
0.712033
0.711519
0.708928
0.707878
0.703533
0.69801
0.689806
0.731316
0.728125
0.723286
0.715608
0.714218
0.708143
0.708385
0.703229
0.702792
0.69664
0.692046
0.684972
0.728813
0.726172
0.721778
0.716014
0.713506
0.708938
0.70749
0.703261
0.700929
0.695068
0.689262
0.682692
0.727349
0.725163
0.721624
0.717263
0.714781
0.711276
0.709384
0.705627
0.702368
0.696153
0.689535
0.68192
0.726936
0.725074
0.721805
0.718209
0.715718
0.712834
0.710698
0.707261
0.7035
0.697325
0.690303
0.681849
)
;

boundaryField
{
    rotor
    {
        type            zeroGradient;
    }
    stator
    {
        type            zeroGradient;
    }
    front
    {
        type            empty;
    }
    back
    {
        type            empty;
    }
    procBoundary3to1
    {
        type            processor;
        value           nonuniform List<scalar> 
20
(
-0.407081
0.345248
0.599009
0.690154
0.72318
0.725294
0.721481
0.716304
0.710447
0.704965
0.699428
0.694585
0.689691
0.685631
0.681654
0.678237
0.675703
0.672968
0.671512
0.670924
)
;
    }
    procBoundary3to2
    {
        type            processor;
        value           nonuniform List<scalar> 
20
(
1.12587
1.25578
1.15105
1.04777
0.972497
0.913871
0.87377
0.846855
0.828643
0.815999
0.807127
0.800676
0.79595
0.792351
0.789624
0.787589
0.786384
0.786249
0.78665
0.786767
)
;
    }
}


// ************************************************************************* //
