/*--------------------------------*- C++ -*----------------------------------*\
  =========                 |
  \\      /  F ield         | OpenFOAM: The Open Source CFD Toolbox
   \\    /   O peration     | Website:  https://openfoam.org
    \\  /    A nd           | Version:  6
     \\/     M anipulation  |
\*---------------------------------------------------------------------------*/
FoamFile
{
    version     2.0;
    format      ascii;
    class       volVectorField;
    location    "2000";
    object      U;
}
// * * * * * * * * * * * * * * * * * * * * * * * * * * * * * * * * * * * * * //

dimensions      [0 1 -1 0 0 0 0];

internalField   nonuniform List<vector> 
768
(
(-1.31768 0.275605 -3.71044e-22)
(-1.34243 0.27874 0)
(-1.26181 0.329851 0)
(-1.20026 0.403333 -8.12929e-19)
(-1.13393 0.457772 1.13778e-18)
(-1.09546 0.508545 0)
(-1.04484 0.558228 0)
(-1.0023 0.615618 3.05976e-19)
(-0.950837 0.671003 3.36151e-19)
(-0.901004 0.728875 9.82753e-19)
(-0.842743 0.781564 1.70108e-18)
(-0.787925 0.83751 -2.56107e-19)
(-1.03378 0.401018 -2.70345e-19)
(-0.893228 0.28379 0)
(-0.759644 0.215807 0)
(-0.658981 0.202383 -7.13885e-20)
(-0.597145 0.208013 1.13245e-19)
(-0.552856 0.218952 -3.8648e-19)
(-0.517162 0.234151 2.54754e-19)
(-0.486668 0.25301 5.78045e-20)
(-0.458428 0.275084 -1.43847e-19)
(-0.431557 0.298736 5.9745e-21)
(-0.404603 0.323776 0)
(-0.377948 0.349301 -3.61896e-19)
(-0.866906 0.456097 1.96851e-19)
(-0.681661 0.217485 0)
(-0.514398 0.131204 0)
(-0.422458 0.110361 1.70266e-20)
(-0.375228 0.110885 -1.42882e-20)
(-0.343961 0.118027 -2.59901e-20)
(-0.319138 0.12828 0)
(-0.297724 0.140513 -1.7746e-19)
(-0.278167 0.154429 1.76834e-19)
(-0.259734 0.169427 -7.58814e-20)
(-0.241795 0.185307 -1.77482e-19)
(-0.224215 0.20159 2.69382e-19)
(-0.863353 0.359975 -6.49024e-20)
(-0.636163 0.131242 6.81507e-20)
(-0.458185 0.0698236 0)
(-0.367191 0.0606255 1.71514e-20)
(-0.323387 0.0670117 -8.96161e-21)
(-0.29484 0.0775425 2.0478e-20)
(-0.27176 0.0897011 0)
(-0.251511 0.102532 -3.12699e-20)
(-0.232858 0.11623 -1.47359e-19)
(-0.215414 0.130367 9.98598e-20)
(-0.198592 0.145114 1.42123e-19)
(-0.182368 0.160049 -2.97257e-19)
(-0.921987 0.276037 8.55737e-20)
(-0.660713 0.0389566 -6.45093e-20)
(-0.455496 0.0136792 8.75408e-21)
(-0.361419 0.0219856 0)
(-0.31664 0.0363375 1.59414e-20)
(-0.286914 0.0517577 -3.59986e-21)
(-0.262732 0.0669725 1.28767e-20)
(-0.241211 0.0823977 2.9673e-20)
(-0.221557 0.0977625 0)
(-0.203054 0.113427 0)
(-0.185544 0.129061 0)
(-0.168495 0.144962 -5.00999e-21)
(-0.992846 0.132114 -3.11776e-20)
(-0.688549 -0.0632875 0)
(-0.464588 -0.045236 -8.35637e-21)
(-0.366447 -0.0167117 -3.54311e-20)
(-0.318809 0.00719396 -2.37221e-20)
(-0.286836 0.0279868 -1.65232e-20)
(-0.260723 0.0470854 -6.14256e-21)
(-0.237647 0.065473 -1.16047e-19)
(-0.216643 0.0833191 -2.72332e-20)
(-0.197031 0.100893 -1.46635e-20)
(-0.178445 0.118139 -9.56998e-21)
(-0.160418 0.135291 4.50692e-19)
(-1.05292 -0.0184733 1.94186e-19)
(-0.716194 -0.181056 -3.74001e-20)
(-0.472893 -0.110255 6.2212e-20)
(-0.369764 -0.0589636 3.44744e-20)
(-0.319051 -0.0241049 3.93155e-20)
(-0.284707 0.00270683 -3.96886e-22)
(-0.256801 0.026375 -3.52901e-20)
(-0.232605 0.0480233 8.61451e-20)
(-0.210616 0.0687533 0)
(-0.190361 0.0883034 2.18799e-19)
(-0.170935 0.10736 -4.18427e-19)
(-0.152248 0.12566 1.62428e-19)
(-1.10942 -0.174399 3.31335e-19)
(-0.737937 -0.310474 6.40521e-20)
(-0.476466 -0.182109 -9.26375e-20)
(-0.367949 -0.104619 0)
(-0.313736 -0.0577607 2.88959e-20)
(-0.277241 -0.0236991 -1.56798e-20)
(-0.248395 0.00472573 1.32512e-20)
(-0.223714 0.0302275 3.22266e-20)
(-0.201679 0.0535951 -7.06432e-20)
(-0.181236 0.0753768 -2.28947e-19)
(-0.161743 0.0957959 1.37673e-19)
(-0.14259 0.115284 -1.77071e-19)
(-1.13298 -0.355674 -3.27579e-19)
(-0.748943 -0.453954 0)
(-0.470435 -0.260658 0)
(-0.357184 -0.153459 0)
(-0.30054 -0.0922864 -2.85152e-20)
(-0.263266 -0.0501479 0)
(-0.234693 -0.0163554 -2.07009e-20)
(-0.210782 0.0128584 1.23483e-19)
(-0.189558 0.0388791 1.94279e-20)
(-0.169806 0.0624613 1.16846e-19)
(-0.150762 0.0840887 -1.57338e-19)
(-0.131797 0.104239 5.0043e-19)
(-1.07331 -0.585648 -1.62621e-19)
(-0.719567 -0.609591 -3.99764e-19)
(-0.444807 -0.343682 6.29407e-20)
(-0.333009 -0.202848 0)
(-0.27738 -0.125674 0)
(-0.242053 -0.0747227 0)
(-0.215821 -0.03554 0)
(-0.194164 -0.00289338 8.68158e-20)
(-0.174819 0.0253611 -3.94782e-19)
(-0.156549 0.0503225 -2.60509e-19)
(-0.13858 0.0727278 3.06056e-19)
(-0.120307 0.0931352 1.91805e-19)
(-0.793508 -0.832132 9.66333e-19)
(-0.584109 -0.75192 1.85407e-19)
(-0.378694 -0.415795 2.03987e-20)
(-0.287276 -0.245638 0)
(-0.241967 -0.153886 0)
(-0.213541 -0.0949872 3.50911e-20)
(-0.19246 -0.0513084 -1.35774e-19)
(-0.174682 -0.016051 3.5055e-19)
(-0.158246 0.0137187 3.42653e-19)
(-0.142148 0.0394891 2.58147e-19)
(-0.125773 0.0621854 -3.03217e-19)
(-0.108642 0.0824264 7.62393e-21)
(0.00493051 -0.89707 1.67258e-19)
(-0.243662 -0.732183 0)
(-0.246231 -0.433351 -7.78472e-20)
(-0.214535 -0.266776 1.79037e-21)
(-0.194183 -0.170629 3.06031e-20)
(-0.179054 -0.108044 2.50814e-20)
(-0.166007 -0.0622176 6.45121e-20)
(-0.153486 -0.0258447 -7.26764e-20)
(-0.140716 0.00441886 -5.83886e-19)
(-0.127269 0.0303046 0)
(-0.112878 0.0527909 0)
(-0.0972349 0.0724803 6.74538e-21)
(-0.726303 0.886648 -4.43751e-19)
(-0.668322 0.937597 -8.535e-19)
(-0.605204 0.983008 -2.10966e-18)
(-0.544626 1.03129 3.29362e-18)
(-0.481388 1.06981 -1.24765e-18)
(-0.420353 1.10533 4.09846e-19)
(-0.358962 1.13582 -7.76773e-19)
(-0.297762 1.16747 1.5603e-18)
(-0.2252 1.1762 -6.2435e-19)
(-0.196239 1.28623 -2.07772e-20)
(-0.223868 1.29326 0)
(-0.277329 1.08393 0)
(-0.350658 0.374856 7.99177e-19)
(-0.323568 0.400086 -2.17377e-19)
(-0.296407 0.425227 -3.38973e-20)
(-0.270118 0.450121 0)
(-0.244567 0.474918 -2.51125e-19)
(-0.221172 0.500122 0)
(-0.200905 0.527199 -9.3038e-20)
(-0.18703 0.559877 2.29846e-19)
(-0.183932 0.607916 0)
(-0.216332 0.696427 1.14953e-19)
(-0.321015 0.836217 -1.28417e-19)
(-0.43886 0.932332 3.34092e-20)
(-0.20677 0.218186 1.1529e-19)
(-0.18961 0.234855 -3.31126e-19)
(-0.172744 0.25172 1.12708e-19)
(-0.156555 0.268847 0)
(-0.14117 0.286687 1.21335e-19)
(-0.127061 0.305647 2.77803e-19)
(-0.114757 0.326836 -3.43836e-19)
(-0.105945 0.352618 1.399e-19)
(-0.10499 0.391601 -7.70176e-20)
(-0.125397 0.472377 0)
(-0.198085 0.625834 0)
(-0.338139 0.817252 -2.22795e-20)
(-0.166366 0.17536 -1.81182e-19)
(-0.150763 0.190772 1.74779e-19)
(-0.135338 0.206594 2.16109e-19)
(-0.120412 0.222827 -1.0114e-19)
(-0.105867 0.239995 -2.31784e-19)
(-0.0920666 0.258374 0)
(-0.078991 0.278872 6.98321e-21)
(-0.0677766 0.303323 2.79229e-19)
(-0.0610045 0.339309 -2.3609e-19)
(-0.0679281 0.41583 8.43162e-20)
(-0.111198 0.578286 -2.17056e-21)
(-0.234405 0.793479 -2.63647e-19)
(-0.151948 0.160856 1.81286e-19)
(-0.135492 0.177093 -8.8209e-20)
(-0.119273 0.193546 2.20663e-19)
(-0.103009 0.21074 -1.09994e-19)
(-0.0869939 0.228844 0)
(-0.0709229 0.248473 0)
(-0.0552672 0.270349 -1.33235e-19)
(-0.0398363 0.296455 -3.13491e-19)
(-0.025633 0.333814 1.79735e-19)
(-0.0155205 0.412982 1.28863e-19)
(-0.0185201 0.591114 -2.19046e-19)
(-0.0905648 0.859195 0)
(-0.142779 0.152343 7.9493e-21)
(-0.125108 0.169539 -3.91383e-19)
(-0.107352 0.187012 0)
(-0.0892346 0.205172 2.52598e-19)
(-0.0708086 0.224409 -2.52698e-19)
(-0.0519325 0.245407 0)
(-0.0326854 0.269032 1.31824e-22)
(-0.0123029 0.297133 -3.47704e-21)
(0.0106491 0.3367 0)
(0.0404765 0.417313 -2.63191e-19)
(0.0809113 0.609505 2.56412e-19)
(0.0653918 0.914176 -5.15717e-19)
(-0.133512 0.143847 -1.86441e-19)
(-0.114757 0.161759 6.08511e-19)
(-0.095268 0.180009 0)
(-0.0752157 0.198718 -2.63485e-19)
(-0.0540701 0.218693 2.63499e-19)
(-0.0320897 0.240435 3.07718e-19)
(-0.00861573 0.265251 -3.12108e-19)
(0.0172274 0.294872 -1.70596e-19)
(0.0495032 0.335477 0)
(0.0973789 0.417141 -1.61665e-19)
(0.179399 0.614928 2.98447e-19)
(0.218062 0.904745 0)
(-0.123353 0.134048 3.77645e-19)
(-0.10351 0.152475 -4.1023e-19)
(-0.0827096 0.170826 4.82712e-19)
(-0.0606183 0.189636 -5.15638e-19)
(-0.037024 0.209467 -2.28474e-20)
(-0.0116225 0.231236 2.92103e-19)
(0.0160864 0.256079 3.24092e-19)
(0.0479032 0.286187 0)
(0.0890316 0.327827 -2.15197e-19)
(0.155183 0.407455 5.81607e-19)
(0.27609 0.607397 -2.75151e-19)
(0.366405 0.893322 0)
(-0.112378 0.123293 2.03488e-19)
(-0.0919579 0.141602 1.20628e-20)
(-0.0700952 0.159583 -2.35436e-19)
(-0.0464719 0.177687 0)
(-0.0206538 0.19663 0)
(0.00774493 0.217254 0)
(0.039745 0.240962 0)
(0.0773971 0.270041 -3.60507e-19)
(0.127765 0.310165 2.09832e-19)
(0.211218 0.387149 1.15821e-20)
(0.367242 0.579418 0)
(0.528442 0.838438 0)
(-0.101178 0.111998 -1.83428e-19)
(-0.0806085 0.129729 -6.44744e-19)
(-0.0582118 0.14674 0)
(-0.0335469 0.163526 2.42136e-19)
(-0.00617831 0.180691 5.39915e-19)
(0.0247118 0.199085 0)
(0.0603855 0.21999 0)
(0.103725 0.245851 1.90159e-19)
(0.162931 0.282357 -6.10179e-19)
(0.263295 0.349591 5.42435e-21)
(0.45757 0.524083 0)
(0.714865 0.764026 0)
(-0.0902249 0.100669 -1.86971e-19)
(-0.069968 0.117393 -2.04342e-19)
(-0.0475336 0.132985 4.6138e-19)
(-0.0224911 0.147915 -7.63137e-19)
(0.00568272 0.162599 2.40247e-19)
(0.0380923 0.177697 5.63181e-19)
(0.0763695 0.194158 -1.43594e-19)
(0.124221 0.21394 1.81576e-19)
(0.190834 0.24126 3.98964e-19)
(0.30396 0.291448 -5.31009e-19)
(0.52582 0.411492 -2.65676e-19)
(0.85331 0.648655 0)
(-0.0799108 0.0897255 -3.0155e-21)
(-0.0603719 0.105089 4.2178e-19)
(-0.0383769 0.118974 -4.55975e-19)
(-0.0136333 0.131684 0)
(0.014498 0.143453 -5.25008e-19)
(0.0471277 0.154487 -8.24175e-19)
(0.0862926 0.165054 1.22945e-20)
(0.135968 0.175848 0)
(0.205357 0.188929 0)
(0.320601 0.209563 1.35441e-19)
(0.557975 0.262726 4.42096e-21)
(1.21401 0.313678 2.76292e-19)
(0.532048 -0.266457 -4.18596e-20)
(0.108846 -0.512834 -1.79368e-20)
(-0.0815844 -0.38025 0)
(-0.128369 -0.255769 1.47419e-21)
(-0.141295 -0.171003 -1.61378e-21)
(-0.142648 -0.111933 -8.91114e-20)
(-0.138825 -0.0675161 -1.00268e-19)
(-0.132053 -0.0319799 1.0024e-19)
(-0.12318 -0.00235428 2.44927e-19)
(-0.112554 0.0229183 2.96557e-19)
(-0.100324 0.0447278 -3.27536e-19)
(-0.0864447 0.0635443 -3.51465e-19)
(0.442108 -0.174327 1.29038e-27)
(0.186252 -0.345825 5.36423e-20)
(0.00941421 -0.296207 9.28677e-20)
(-0.0648717 -0.220649 0)
(-0.0966535 -0.157333 9.31438e-20)
(-0.109809 -0.107614 0)
(-0.113496 -0.0677378 1.13405e-19)
(-0.11175 -0.0347463 1.4414e-20)
(-0.106445 -0.00676194 -4.06688e-19)
(-0.0985183 0.0172924 -2.92143e-19)
(-0.0884772 0.0380631 3.22555e-19)
(-0.0765177 0.0558373 3.57138e-19)
(0.314566 -0.0929567 2.66952e-20)
(0.17302 -0.226498 -1.43691e-19)
(0.0453585 -0.221867 -1.76098e-19)
(-0.0260181 -0.181245 -5.12869e-20)
(-0.0637099 -0.137607 -3.1788e-19)
(-0.082922 -0.0983895 1.7294e-19)
(-0.0914861 -0.0643713 -1.00629e-20)
(-0.0934685 -0.0348734 1.24237e-19)
(-0.0910721 -0.00917503 -1.61197e-20)
(-0.0855232 0.0132567 0)
(-0.0775516 0.0327722 0)
(-0.0676952 0.0495295 4.4769e-21)
(0.225386 -0.0551575 2.80536e-20)
(0.143698 -0.152168 6.40396e-20)
(0.0551237 -0.165432 1.13049e-19)
(-0.00480567 -0.145855 -1.28037e-19)
(-0.0412438 -0.116929 4.72415e-19)
(-0.06229 -0.0870142 -2.29963e-19)
(-0.0733218 -0.0588426 0)
(-0.0776698 -0.0331308 2.83089e-19)
(-0.0773974 -0.00998747 2.85428e-19)
(-0.0737855 0.0106268 0)
(-0.0677654 0.0288885 0)
(-0.0602297 0.0450446 -1.06597e-18)
(-0.0705545 0.079488 3.84236e-19)
(-0.0520134 0.0932438 -4.13068e-19)
(-0.0308669 0.105259 -6.6566e-19)
(-0.00699132 0.115643 -1.36867e-20)
(0.0202142 0.124394 4.74467e-19)
(0.0517279 0.131186 1.30756e-18)
(0.0894658 0.135399 2.85859e-19)
(0.136762 0.135719 -2.90793e-19)
(0.200901 0.129603 0)
(0.299185 0.109019 1.60553e-20)
(0.472618 0.0517707 0)
(0.847862 -0.315798 -1.17782e-19)
(-0.0623713 0.0701399 0)
(-0.0449606 0.0821254 2.49819e-21)
(-0.0249577 0.0922232 4.31553e-19)
(-0.00237283 0.100401 -6.76817e-19)
(0.0231875 0.106363 -7.17464e-19)
(0.0524903 0.109443 -5.08626e-19)
(0.0867759 0.108325 6.4949e-19)
(0.128047 0.100607 4.21563e-19)
(0.179709 0.0817318 -2.88737e-19)
(0.247622 0.0407754 1.72477e-19)
(0.332748 -0.0504483 0)
(0.34282 -0.357205 0)
(-0.0556092 0.0618672 -3.79114e-19)
(-0.0392241 0.0718764 1.95263e-19)
(-0.0204649 0.0801029 -2.08625e-19)
(0.000564105 0.0862943 2.1705e-19)
(0.024072 0.0899135 6.81141e-19)
(0.0505219 0.0901043 0)
(0.0804366 0.085276 -2.06402e-20)
(0.114475 0.0728258 -2.66466e-19)
(0.15298 0.0482051 1.45703e-20)
(0.195135 0.00258982 -2.86285e-19)
(0.229876 -0.0845408 4.22344e-20)
(0.193121 -0.2671 -4.64196e-20)
(-0.0506408 0.0548228 -3.81237e-19)
(-0.0347731 0.0625113 0)
(-0.0171437 0.0689116 4.04687e-19)
(0.00224186 0.0733547 -6.24571e-19)
(0.0235742 0.0751175 2.12042e-19)
(0.0469714 0.0732168 0)
(0.0724606 0.0661107 -1.72312e-20)
(0.0996984 0.0514597 4.78672e-19)
(0.127372 0.0256994 2.6172e-19)
(0.151853 -0.0170929 1.43812e-20)
(0.161723 -0.0876095 0)
(0.117324 -0.196947 7.00208e-20)
(0.164714 -0.0395805 5.21554e-20)
(0.113143 -0.107491 0)
(0.0513701 -0.124654 1.47871e-19)
(0.004187 -0.116082 1.25217e-19)
(-0.0275992 -0.0970063 -2.47937e-19)
(-0.0475837 -0.0744546 1.41961e-19)
(-0.059054 -0.0514878 2.78948e-19)
(-0.0644358 -0.0294473 9.65193e-21)
(-0.0654197 -0.0088852 1.62167e-19)
(-0.0632431 0.009903 -4.88048e-19)
(-0.0590407 0.0271376 -1.6592e-19)
(-0.0545555 0.0435512 7.24251e-19)
(0.124116 -0.0267098 -7.51154e-20)
(0.0910637 -0.0769863 -2.26937e-20)
(0.047133 -0.0951996 -1.44522e-19)
(0.00985944 -0.0932891 0)
(-0.0174136 -0.0810212 -3.62645e-19)
(-0.0358163 -0.0640337 -2.01221e-19)
(-0.0471413 -0.0453125 1.81213e-20)
(-0.0530469 -0.0263974 1.52275e-19)
(-0.0548827 -0.00805723 -4.56238e-19)
(-0.0538538 0.00929532 6.44522e-19)
(-0.0516477 0.0264563 0)
(-0.051654 0.0455295 8.11951e-19)
(0.0962257 -0.0188816 -1.19431e-19)
(0.0744056 -0.0567685 2.27292e-20)
(0.0425438 -0.0738764 0)
(0.0130935 -0.0754384 -3.10267e-19)
(-0.0100368 -0.0676692 3.60536e-19)
(-0.0265419 -0.0548339 3.7851e-19)
(-0.0372507 -0.0395673 -4.40376e-19)
(-0.0431975 -0.0233444 -6.25521e-19)
(-0.0454103 -0.00696864 -6.45201e-19)
(-0.0450246 0.00928658 8.58229e-19)
(-0.0443417 0.027588 -1.96148e-19)
(-0.0505435 0.0530996 -2.11158e-18)
(0.0765368 -0.0138933 1.66993e-19)
(0.0616484 -0.0429643 2.26435e-20)
(0.03804 -0.058116 0)
(0.0146328 -0.0613877 3.81682e-19)
(-0.004794 -0.0565743 -8.61089e-22)
(-0.0193203 -0.0468431 -6.26561e-20)
(-0.0291191 -0.0343754 0)
(-0.0347384 -0.0205102 1.36825e-19)
(-0.0368385 -0.0060011 4.76267e-19)
(-0.0362037 0.00902525 1.13094e-20)
(-0.0353205 0.0288838 9.50258e-19)
(-0.0449641 0.0648345 3.62173e-18)
(-0.0480097 0.0497675 7.69825e-19)
(-0.0311689 0.0543082 1.95028e-19)
(-0.0141985 0.0588383 -1.92514e-19)
(0.00372497 0.0617314 4.05237e-19)
(0.0230018 0.0619801 0)
(0.0435267 0.0585132 6.42287e-19)
(0.0649833 0.0499309 -9.94963e-19)
(0.0864305 0.0343101 -5.83018e-19)
(0.105795 0.00915838 0)
(0.118637 -0.028805 2.55654e-19)
(0.115031 -0.0834811 0)
(0.0719902 -0.150122 -6.60914e-20)
(-0.0499602 0.0466944 0)
(-0.0300472 0.0468513 0)
(-0.0130227 0.0495718 0)
(0.00362595 0.051349 -1.97642e-19)
(0.0209019 0.0506865 -5.69484e-21)
(0.0387069 0.0464966 -2.13344e-19)
(0.0565371 0.0375743 4.30074e-19)
(0.0732682 0.0225049 -4.31742e-19)
(0.0866864 -0.000249658 0)
(0.0927654 -0.0320951 1.68962e-19)
(0.0841842 -0.0732275 8.73791e-20)
(0.0478363 -0.115702 -2.89269e-20)
(-0.0576006 0.0453266 0)
(-0.030749 0.0394653 6.49348e-19)
(-0.0125277 0.0409592 -3.57515e-21)
(0.00311846 0.0422008 -4.4414e-21)
(0.0185792 0.0411402 1.91263e-19)
(0.0339642 0.0367676 1.92324e-19)
(0.0487326 0.0281231 3.03789e-19)
(0.0617607 0.0142527 2.14883e-19)
(0.0709905 -0.00564988 1.05692e-19)
(0.0731009 -0.0318158 -2.2301e-19)
(0.0628982 -0.0627584 -1.06855e-19)
(0.0332485 -0.0909936 0)
(-0.0695741 0.0388304 4.96615e-19)
(-0.0315237 0.0303987 -2.43495e-19)
(-0.011774 0.0324597 0)
(0.00269254 0.0339773 0)
(0.0163875 0.0329928 -1.89538e-19)
(0.029603 0.0288053 -3.09799e-21)
(0.0418224 0.020783 -5.80148e-19)
(0.0519803 0.00835827 0)
(0.0582971 -0.00874791 -4.01177e-19)
(0.0581397 -0.0300986 0)
(0.0479758 -0.0536184 -9.62892e-20)
(0.0240637 -0.0731354 0)
(0.0622576 -0.0105775 -4.64507e-20)
(0.0517257 -0.0332435 -4.22433e-20)
(0.0338853 -0.0463433 4.22423e-20)
(0.0151902 -0.050292 0)
(-0.00107287 -0.0474071 -3.97281e-19)
(-0.013699 -0.0400007 -2.27456e-19)
(-0.0224608 -0.0298146 7.92547e-19)
(-0.0275371 -0.0180621 4.65816e-19)
(-0.0291859 -0.00552741 0)
(-0.0276998 0.00739056 7.22754e-21)
(-0.0242176 0.0252605 -1.16038e-18)
(-0.0184088 0.0620569 -4.52794e-18)
(0.051634 -0.00827222 -9.14481e-20)
(0.0439547 -0.0262198 -4.23603e-20)
(0.0302128 -0.0373888 -2.93255e-19)
(0.0151598 -0.0414856 8.01843e-20)
(0.00156601 -0.0398715 2.32674e-19)
(-0.0093213 -0.0342083 -7.99127e-19)
(-0.0170473 -0.0258965 -4.64829e-19)
(-0.0215319 -0.0160189 0)
(-0.0227725 -0.00541508 0)
(-0.0208549 0.00521023 -5.45423e-19)
(-0.0171555 0.0198662 -3.11501e-19)
(-0.00735213 0.0416269 -7.54277e-18)
(0.043564 -0.00660609 2.28899e-20)
(0.037798 -0.0210192 1.94862e-19)
(0.0270377 -0.0305092 3.29031e-19)
(0.0148293 -0.0344727 0)
(0.00345104 -0.0336791 -2.44772e-19)
(-0.0059006 -0.0293389 1.03411e-18)
(-0.0126625 -0.0225577 -4.83702e-19)
(-0.0166048 -0.0143156 0)
(-0.0175948 -0.0054573 0)
(-0.0157781 0.00311332 0)
(-0.0129749 0.0136995 0)
(-0.00754309 0.0247842 7.63692e-18)
(0.0373188 -0.00535823 0)
(0.0328927 -0.0170868 -1.27435e-19)
(0.0243301 -0.0251531 -4.20662e-20)
(0.0143444 -0.0288649 8.10298e-20)
(0.00480037 -0.0285997 1.57067e-19)
(-0.00322828 -0.0252729 -7.11387e-19)
(-0.00912678 -0.0197314 1.46654e-19)
(-0.012607 -0.0128918 0)
(-0.0134605 -0.00553084 -6.48686e-19)
(-0.011886 0.00132855 5.37485e-19)
(-0.00973099 0.00875358 -8.97798e-19)
(-0.00881121 0.0126204 -7.55026e-18)
(0.032447 -0.00439703 6.52976e-20)
(0.0289696 -0.0140667 2.13706e-20)
(0.022056 -0.0209606 0)
(0.0138245 -0.0243793 -8.10215e-20)
(0.00578492 -0.024431 -4.89068e-19)
(-0.00112282 -0.0218901 -8.02948e-20)
(-0.00627225 -0.0173399 -1.12983e-20)
(-0.0093734 -0.0116837 -6.39637e-19)
(-0.0101641 -0.00557503 4.75669e-19)
(-0.00890205 -7.18251e-05 -5.19067e-19)
(-0.00723812 0.00510586 1.14077e-18)
(-0.00884813 0.00492149 -6.88046e-20)
(0.0287265 -0.00364294 -1.06366e-19)
(0.0259422 -0.0117327 6.26458e-20)
(0.0202572 -0.01768 -4.15231e-20)
(0.0133996 -0.0208158 8.10714e-20)
(0.00657083 -0.0210456 6.39319e-19)
(0.000570364 -0.0191142 7.93459e-20)
(-0.00395462 -0.0153373 4.71987e-19)
(-0.00677389 -0.0106651 1.10948e-18)
(-0.0075496 -0.00556533 1.59428e-19)
(-0.00661231 -0.00114498 0)
(-0.00536902 0.00253045 0)
(-0.00843156 0.000211902 6.97444e-18)
(0.0262982 -0.00305404 6.40893e-28)
(0.0239965 -0.00996208 -1.27236e-19)
(0.019185 -0.0151873 -3.77166e-19)
(0.0133536 -0.0180616 0)
(0.00740713 -0.018397 0)
(0.00207558 -0.0169087 -1.6256e-19)
(-0.00201071 -0.0137234 1.62555e-19)
(-0.00466336 -0.00981934 -1.28692e-18)
(-0.0054867 -0.0055099 -8.06257e-19)
(-0.00488116 -0.00190982 3.43364e-19)
(-0.00398726 0.000720902 1.89226e-18)
(-0.00754606 -0.00269436 1.35573e-17)
(0.0258223 -0.00262693 6.83779e-20)
(0.0238092 -0.00873158 2.47974e-19)
(0.0194963 -0.0134384 6.72135e-19)
(0.0142743 -0.0161309 -7.15982e-19)
(0.00879617 -0.0165123 -6.23574e-19)
(0.00376948 -0.0153307 -2.63894e-19)
(-0.000162687 -0.0125372 1.75509e-19)
(-0.00285885 -0.00918534 6.90206e-19)
(-0.00383656 -0.00542781 2.07511e-18)
(-0.00357394 -0.00244049 1.46793e-18)
(-0.00296016 -0.000514547 1.40024e-20)
(-0.0066386 -0.00441271 8.26928e-20)
(0.0287554 -0.00238923 -1.10185e-19)
(0.0267916 -0.00809543 -2.20063e-19)
(0.0224783 -0.0125548 -4.36817e-19)
(0.0173368 -0.0150706 1.6333e-18)
(0.0116683 -0.0156083 8.6488e-19)
(0.00642808 -0.0144421 1.08179e-19)
(0.00208141 -0.0119909 -8.56239e-19)
(-0.000957907 -0.0087793 0)
(-0.0023948 -0.00546054 7.90318e-21)
(-0.00248564 -0.00274144 -3.52454e-18)
(-0.00219529 -0.00142943 -2.81158e-18)
(-0.00545403 -0.00519338 1.77573e-18)
(0.0378754 -0.00241034 0)
(0.0355905 -0.00829142 4.10175e-19)
(0.0305944 -0.0128205 -7.36031e-19)
(0.0246652 -0.0152774 -1.30318e-18)
(0.017814 -0.0160839 -1.13492e-18)
(0.0113963 -0.0146592 -4.83153e-19)
(0.00570671 -0.0124209 1.97457e-21)
(0.00169548 -0.00888486 -2.21813e-18)
(-0.00072957 -0.00579236 -5.34692e-18)
(-0.00128636 -0.00299275 2.91579e-18)
(-0.0014323 -0.00210984 0)
(-0.00386671 -0.00538589 -3.02731e-17)
(0.0572089 -0.00272774 0)
(0.0540446 -0.00958464 -1.20425e-18)
(0.0472992 -0.0145658 1.20096e-18)
(0.0393253 -0.017372 -3.40984e-19)
(0.0298743 -0.0184148 5.78549e-18)
(0.0207279 -0.0167211 2.70319e-18)
(0.0123992 -0.0142607 2.68691e-18)
(0.00624824 -0.0101265 5.32897e-18)
(0.00217828 -0.00676498 5.27976e-18)
(0.000713609 -0.00367297 0)
(-3.04637e-05 -0.00289026 0)
(-0.00188109 -0.00522273 2.08867e-17)
(0.0824811 -0.00311339 -1.31359e-18)
(0.0783071 -0.0109752 1.10563e-17)
(0.0691152 -0.0164896 4.53191e-18)
(0.0585354 -0.0197153 1.03816e-17)
(0.0460885 -0.0211138 -1.04094e-17)
(0.0340085 -0.0193764 -2.59888e-18)
(0.0229033 -0.017033 2.58952e-18)
(0.0144881 -0.0126507 -2.54751e-18)
(0.00864771 -0.0094343 2.54936e-18)
(0.00610709 -0.00628727 0)
(0.00403153 -0.00521669 0)
(0.0013513 -0.00538122 4.76603e-17)
(-0.0667647 0.0111418 0)
(-0.027471 0.019809 -1.57356e-18)
(-0.00963163 0.0243957 2.0086e-19)
(0.00271378 0.0267113 0)
(0.0145104 0.0260771 0)
(0.0257543 0.022277 1.86376e-19)
(0.0358427 0.0150226 2.87909e-19)
(0.0437885 0.00407265 -9.47744e-20)
(0.0480801 -0.0105016 3.9342e-19)
(0.0467015 -0.0279212 0)
(0.0372882 -0.0460169 1.97124e-19)
(0.0180431 -0.059998 4.58849e-20)
(-0.0469698 -0.000115051 0)
(-0.0217183 0.0136017 0)
(-0.00703292 0.0181115 -7.95657e-19)
(0.00303229 0.0206874 0)
(0.0129606 0.0203205 -1.78106e-19)
(0.0224371 0.0169487 3.57673e-19)
(0.0307459 0.0104896 -8.98931e-19)
(0.0369844 0.000934073 -9.22488e-20)
(0.0398764 -0.0114351 9.22515e-20)
(0.0378996 -0.0256898 3.67463e-19)
(0.0295042 -0.0398283 0)
(0.0139439 -0.0501506 -4.49856e-20)
(-0.030285 0.00105116 0)
(-0.0152844 0.0101777 -3.35306e-19)
(-0.00461664 0.013567 1.17111e-18)
(0.00342257 0.0158823 -1.7425e-19)
(0.011669 0.0156108 0)
(0.0196012 0.0126173 -5.14747e-19)
(0.0264273 0.0069028 1.22549e-18)
(0.0313487 -0.00139751 0)
(0.033268 -0.0118886 0)
(0.0310705 -0.0236173 -3.16069e-19)
(0.0237233 -0.0347959 1.29721e-19)
(0.0110552 -0.042625 4.2283e-20)
(-0.0177343 0.00320011 0)
(-0.010147 0.00755647 0)
(-0.00263022 0.0101296 -7.53922e-19)
(0.00376586 0.0120711 1.69729e-19)
(0.0105696 0.0117885 -1.67075e-19)
(0.0171859 0.00911477 1.51164e-18)
(0.0227833 0.00406468 -1.77668e-19)
(0.026693 -0.00313194 4.22885e-19)
(0.0279358 -0.0120505 -4.23988e-19)
(0.0257351 -0.0217591 3.37963e-19)
(0.0193677 -0.0307286 -1.70523e-19)
(0.00895467 -0.0367927 -4.14518e-20)
(-0.0094214 0.00428746 0)
(-0.00635819 0.005574 1.22271e-18)
(-0.00108609 0.00750897 7.3232e-19)
(0.00401487 0.00905571 0)
(0.00961021 0.00869777 -4.85771e-19)
(0.0151288 0.00627965 -9.81024e-19)
(0.0197108 0.00179497 -1.06401e-18)
(0.0228541 -0.00445651 2.39112e-19)
(0.0236181 -0.0120734 3.32193e-19)
(0.0215513 -0.0201752 -3.31455e-19)
(0.0160413 -0.0274346 0)
(0.00738808 -0.0322322 0)
(-0.00407088 0.00468593 0)
(-0.00365598 0.0041366 -1.16833e-18)
(5.10721e-05 0.00549939 1.76768e-19)
(0.0041714 0.0066882 -1.61629e-19)
(0.00875504 0.00620038 6.38138e-19)
(0.0134036 0.00399015 1.58881e-19)
(0.017138 -5.27315e-05 4.81172e-19)
(0.0197291 -0.00551736 -1.35409e-18)
(0.0201404 -0.012102 7.96472e-20)
(0.0182875 -0.018939 -3.94798e-20)
(0.0134953 -0.0249035 3.94812e-20)
(0.00619807 -0.028766 0)
(-0.000588733 0.00461115 0)
(-0.00176401 0.00312464 -2.24053e-18)
(0.000861865 0.00398413 0)
(0.00423521 0.00484045 -6.40029e-19)
(0.0080286 0.00418399 4.73252e-19)
(0.0119986 0.00208058 9.43302e-19)
(0.0150854 -0.00166952 -7.88327e-20)
(0.0172749 -0.00657628 5.55199e-19)
(0.017463 -0.0124104 0)
(0.0158188 -0.0183506 -3.89564e-20)
(0.0115892 -0.0233343 3.89576e-20)
(0.00529209 -0.0265511 0)
(0.00156601 0.00423918 0)
(-0.000452999 0.00243711 -2.72576e-19)
(0.00139798 0.00284859 1.85025e-19)
(0.0042605 0.003402 -6.75325e-19)
(0.00746268 0.00247719 -1.34238e-18)
(0.0109884 0.000321323 -5.02439e-19)
(0.0135972 -0.00340859 -1.66514e-19)
(0.0155566 -0.00809056 -7.43589e-19)
(0.0155797 -0.013592 8.28533e-20)
(0.0141231 -0.0190609 -3.6839e-19)
(0.0102374 -0.0234652 4.09649e-20)
(0.00467342 -0.0263147 0)
(0.00303201 0.00365702 -1.38972e-17)
(0.000376475 0.00191849 2.55034e-18)
(0.00185221 0.00199846 -1.53708e-18)
(0.004214 0.00208773 -2.03216e-19)
(0.0072933 0.000825368 8.11996e-19)
(0.0103703 -0.00183743 2.00821e-19)
(0.0129872 -0.00590515 -2.00802e-19)
(0.014597 -0.0110411 3.22644e-21)
(0.0147692 -0.0167794 0)
(0.0131687 -0.0224937 3.966e-19)
(0.00954216 -0.0267676 0)
(0.00429705 -0.0296241 0)
(0.00363857 0.00302299 1.52223e-17)
(0.000973917 0.00133886 -3.85942e-18)
(0.00236821 0.00119928 2.88839e-18)
(0.00433757 0.000507728 2.43468e-18)
(0.00778308 -0.00136378 3.00679e-19)
(0.0105287 -0.00527283 1.19858e-18)
(0.0136676 -0.0104353 -1.34623e-18)
(0.0148752 -0.0171232 8.90106e-19)
(0.0154597 -0.0241839 1.48116e-19)
(0.0133175 -0.0312324 5.87404e-19)
(0.00963039 -0.036232 -2.91024e-19)
(0.00433375 -0.0396568 0)
(0.00363697 0.00167352 0)
(0.0017053 0.000389097 6.48059e-18)
(0.00318029 -0.000314111 -5.92658e-18)
(0.00521571 -0.00200665 1.27486e-18)
(0.00916856 -0.00526834 -1.26515e-18)
(0.0122366 -0.0113135 -2.50967e-18)
(0.016033 -0.0190139 3.44717e-18)
(0.0173468 -0.0288309 -3.12643e-19)
(0.0181769 -0.0390766 0)
(0.015363 -0.0491846 -1.23118e-18)
(0.0108374 -0.0562392 1.83004e-18)
(0.00505933 -0.0612098 0)
(0.00360315 -0.000489452 -4.79713e-17)
(0.00312711 -0.00213319 2.25408e-17)
(0.00508214 -0.00383402 1.99172e-17)
(0.00690103 -0.00658953 0)
(0.0111719 -0.0112799 -1.9526e-17)
(0.0143271 -0.0196812 -1.70274e-17)
(0.01878 -0.0303529 7.25799e-18)
(0.0201988 -0.0441165 -1.20236e-18)
(0.0214472 -0.0586416 1.19997e-18)
(0.017918 -0.0731367 0)
(0.0124583 -0.0833061 2.62881e-21)
(0.00603715 -0.0912731 1.16139e-18)
)
;

boundaryField
{
    rotor
    {
        type            fixedValue;
        value           nonuniform List<vector> 
48
(
(-0.201784 0.00660572 0)
(-0.20092 0.0197889 0)
(-0.199195 0.0328873 0)
(-0.196618 0.0458448 0)
(-0.193198 0.0586061 0)
(-0.188952 0.0711164 0)
(-0.183896 0.0833222 0)
(-0.178053 0.0951712 0)
(-0.171447 0.106613 0)
(-0.164107 0.117597 0)
(-0.156065 0.128079 0)
(-0.147354 0.138012 0)
(-0.138012 0.147354 0)
(-0.128079 0.156065 0)
(-0.117597 0.164107 0)
(-0.106613 0.171447 0)
(-0.0951712 0.178053 0)
(-0.0833222 0.183896 0)
(-0.0711164 0.188952 0)
(-0.0586061 0.193198 0)
(-0.0458448 0.196618 0)
(-0.0328873 0.199195 0)
(-0.0197889 0.20092 0)
(-0.00660572 0.201784 0)
(0 0.214625 0)
(0 0.239875 0)
(0 0.265125 0)
(0 0.290375 0)
(0 0.315625 0)
(0 0.340875 0)
(0 0.366125 0)
(0 0.391375 0)
(0 0.416625 0)
(0 0.441875 0)
(0 0.467125 0)
(0 0.492375 0)
(-0.214625 3.8523e-10 0)
(-0.239875 4.30551e-10 0)
(-0.265125 4.75872e-10 0)
(-0.290375 5.21193e-10 0)
(-0.315625 5.66514e-10 0)
(-0.340875 6.11835e-10 0)
(-0.366125 6.57157e-10 0)
(-0.391375 7.02478e-10 0)
(-0.416625 7.47799e-10 0)
(-0.441875 7.9312e-10 0)
(-0.467125 8.38441e-10 0)
(-0.492375 8.83762e-10 0)
)
;
    }
    stator
    {
        type            noSlip;
    }
    front
    {
        type            empty;
    }
    back
    {
        type            empty;
    }
    procBoundary3to1
    {
        type            processor;
        value           nonuniform List<vector> 
20
(
(-0.262241 -0.548136 -7.32471e-20)
(-0.173642 -0.44867 0)
(-0.0912269 -0.317043 -1.89394e-20)
(-0.0529384 -0.226187 -4.93251e-20)
(-0.0372787 -0.164846 4.69187e-20)
(-0.0244543 -0.124003 -2.12949e-20)
(-0.0167306 -0.0960692 0)
(-0.0118476 -0.0764273 0)
(-0.00864545 -0.0622446 -4.26587e-20)
(-0.0064557 -0.0517281 4.1824e-20)
(-0.00490912 -0.0437765 -4.03819e-20)
(-0.00378165 -0.0376429 3.959e-20)
(-0.0029606 -0.0328856 0)
(-0.00236927 -0.0292785 0)
(-0.00193901 -0.026994 0)
(-0.0017027 -0.0267283 0)
(-0.00154523 -0.0301078 0)
(-0.0015832 -0.0402816 0)
(-0.00204063 -0.0623096 0)
(-0.00258083 -0.0941998 -1.1134e-18)
)
;
    }
    procBoundary3to2
    {
        type            processor;
        value           nonuniform List<vector> 
20
(
(0.310745 0.82114 2.27082e-19)
(0.352594 0.331947 -6.70217e-20)
(0.265281 0.187333 -1.20857e-21)
(0.196389 0.11339 -1.10046e-19)
(0.150021 0.0689651 1.30085e-19)
(0.115729 0.045351 -3.06915e-20)
(0.0910021 0.0311118 -5.39877e-20)
(0.0730575 0.0221634 1.04387e-19)
(0.059812 0.0163157 -5.04867e-20)
(0.0498416 0.0123521 -4.79494e-20)
(0.0422064 0.00957999 4.70089e-20)
(0.0362682 0.00759301 -2.29349e-20)
(0.031621 0.00614191 8.84531e-20)
(0.0280793 0.0050797 -8.70303e-20)
(0.0257929 0.00432206 2.17518e-20)
(0.0254248 0.00382847 -9.20186e-20)
(0.028417 0.00359402 1.11489e-19)
(0.037528 0.00371497 1.66055e-19)
(0.0566352 0.00440146 -4.35532e-19)
(0.0809503 0.00515176 -2.68247e-18)
)
;
    }
}


// ************************************************************************* //
