/*--------------------------------*- C++ -*----------------------------------*\
  =========                 |
  \\      /  F ield         | OpenFOAM: The Open Source CFD Toolbox
   \\    /   O peration     | Website:  https://openfoam.org
    \\  /    A nd           | Version:  6
     \\/     M anipulation  |
\*---------------------------------------------------------------------------*/
FoamFile
{
    version     2.0;
    format      ascii;
    class       volScalarField;
    location    "500";
    object      epsilon;
}
// * * * * * * * * * * * * * * * * * * * * * * * * * * * * * * * * * * * * * //

dimensions      [0 2 -3 0 0 0 0];

internalField   nonuniform List<scalar> 
768
(
576.063
314.621
314.621
314.621
314.621
314.621
314.621
314.621
314.621
314.621
314.621
314.621
515.543
140.756
66.731
52.1448
49.2674
48.7421
48.6463
48.6329
48.6365
48.6428
48.6511
48.6597
466.522
112.874
41.0124
26.4595
23.5759
22.9769
22.8689
22.8584
22.851
22.8562
22.8749
22.8845
426.008
99.6648
35.7511
23.1575
20.713
20.2472
20.1564
20.14
20.134
20.1362
20.1381
20.1396
391.966
89.5398
32.9245
22.2588
20.2664
19.8937
19.8226
19.8101
19.8058
19.8082
19.8087
19.8091
362.959
81.1142
30.9201
21.7286
20.1112
19.8101
19.7613
19.7517
19.7533
19.7489
19.7519
19.7507
337.948
73.9879
29.2622
21.3516
20.0014
19.772
19.7288
19.7255
19.7279
19.7296
19.7286
19.726
316.16
67.9659
27.9234
21.0337
19.9342
19.7394
19.7079
19.7017
19.7069
19.7107
19.7105
19.7103
297.011
62.9066
26.877
20.8295
19.8716
19.7234
19.6981
19.6897
19.6894
19.6894
19.685
19.6844
280.049
58.8353
26.0943
20.658
19.829
19.7058
19.6772
19.6747
19.6743
19.6749
19.6777
19.677
264.918
55.9369
25.6012
20.5309
19.808
19.6876
19.6577
19.6585
19.6659
19.6596
19.6535
19.653
251.339
51.0227
24.4708
20.3293
19.7652
19.6747
19.6489
19.6385
19.6469
19.6531
19.6525
19.6503
314.621
314.621
314.621
314.621
314.621
314.621
314.621
314.621
314.621
314.621
314.621
576.063
48.6798
48.7106
48.741
48.768
48.7897
48.8059
48.8135
48.8088
48.7882
64.4041
141.471
515.543
22.8939
22.9032
22.9111
22.907
22.9003
22.9127
22.931
22.9357
22.9252
37.6156
112.43
466.522
20.1425
20.1452
20.1475
20.1454
20.1468
20.1473
20.1513
20.1537
20.1533
32.4175
99.017
426.008
19.808
19.8098
19.8095
19.8107
19.8085
19.8102
19.8109
19.8128
19.8117
29.9446
88.4512
391.966
19.7506
19.7497
19.7539
19.7527
19.7521
19.7516
19.753
19.7523
19.7538
27.8915
80.0027
362.959
19.7219
19.7222
19.7223
19.7248
19.7282
19.7293
19.7298
19.7299
19.7298
26.5571
72.2886
337.948
19.7095
19.7051
19.7032
19.7077
19.7095
19.7105
19.7125
19.709
19.7086
25.2582
66.184
316.16
19.6834
19.6845
19.6895
19.6896
19.6904
19.6907
19.6872
19.688
19.6921
24.35
60.1095
297.011
19.6726
19.6734
19.6734
19.669
19.6673
19.6744
19.6761
19.6777
19.6821
23.522
55.1236
280.049
19.6582
19.6574
19.6597
19.6585
19.6506
19.6593
19.6623
19.6567
19.6627
22.6063
51.2854
264.918
19.6446
19.6396
19.6457
19.6447
19.6377
19.6475
19.6462
19.6401
19.645
22.2142
44.5654
251.339
58.6521
29.0048
21.3927
19.9632
19.691
19.6549
19.636
19.6259
19.6269
19.6336
19.6308
19.6235
26.1438
21.7809
20.1675
19.7275
19.638
19.6318
19.622
19.6227
19.63
19.6206
19.6092
19.6091
20.827
20.0763
19.759
19.64
19.6203
19.6162
19.6
19.6092
19.6201
19.6113
19.6005
19.6091
19.8406
19.7106
19.6426
19.6151
19.6145
19.605
19.5896
19.5898
19.6027
19.6098
19.6093
19.61
19.6312
19.6379
19.632
19.6328
19.6377
19.6417
19.6336
19.6293
19.6396
20.3713
27.0211
71.7667
19.6094
19.6097
19.6106
19.6102
19.6127
19.6239
19.6302
19.6207
19.6185
19.8082
21.2967
29.3154
19.6079
19.598
19.6057
19.6043
19.6084
19.6201
19.6114
19.6022
19.6008
19.6502
19.9748
21.3757
19.609
19.597
19.5874
19.5859
19.5879
19.6012
19.5979
19.6017
19.5958
19.5951
19.6686
19.9173
19.6434
19.6131
19.5957
19.5885
19.5851
19.5845
19.5817
19.5814
19.5829
19.5834
19.5833
19.5829
19.5968
19.5806
19.5761
19.5751
19.5724
19.5733
19.5722
19.571
19.5716
19.5717
19.5719
19.5731
19.5786
19.567
19.5661
19.5665
19.5644
19.5639
19.5633
19.5632
19.5633
19.5632
19.5634
24.8609
19.57
19.5575
19.5565
19.557
19.5562
19.5548
19.5547
19.5555
19.5546
19.5546
22.8254
51.2814
19.5832
19.5818
19.5801
19.5798
19.5793
19.5817
19.5812
19.5817
19.5808
19.5788
19.599
19.6449
19.5717
19.5705
19.5703
19.5701
19.5691
19.5706
19.5703
19.5706
19.5719
19.5687
19.5757
19.5856
25.639
20.2594
19.622
19.5659
19.561
19.5616
19.5616
19.5627
19.5634
19.562
19.5634
19.5655
51.8592
23.1578
19.8619
19.577
19.555
19.5535
19.5543
19.5535
19.5553
19.554
19.5553
19.5559
19.5609
19.5483
19.548
19.5489
19.5485
19.5481
19.5469
19.5472
19.5472
20.0117
30.4205
171.989
19.5526
19.5421
19.5408
19.5417
19.5418
19.5413
19.5402
19.5404
19.5408
20.1072
30.9713
166.16
19.5463
19.536
19.5349
19.5346
19.535
19.5348
19.5343
19.5339
19.5341
20.07
30.2845
160.713
19.54
19.5289
19.5286
19.529
19.5289
19.5289
19.5286
19.5281
19.5287
20.005
29.4477
155.612
19.5341
19.5239
19.5236
19.5232
19.5228
19.5233
19.5231
19.5226
19.5229
19.9411
28.6569
150.824
19.5283
19.5185
19.5186
19.518
19.518
19.518
19.5182
19.5178
19.5177
19.8845
27.9388
146.323
19.5239
19.5139
19.5134
19.5133
19.5138
19.5132
19.5133
19.513
19.5128
19.8351
27.2903
142.082
19.5192
19.5095
19.5089
19.5089
19.5093
19.5091
19.5087
19.5084
19.5085
19.7923
26.7036
138.081
19.5142
19.5053
19.5048
19.5033
19.506
19.504
19.5051
19.504
19.5046
19.7549
26.1717
134.298
33.0193
33.9604
34.0227
34.0308
34.0276
34.0302
34.0306
34.0273
34.0179
34.2345
40.192
130.717
90.9247
91.2822
91.3286
91.3508
91.3701
91.3778
91.3821
91.3768
91.3649
91.5448
93.9836
127.322
322.149
322.149
322.149
322.149
322.149
322.149
322.149
322.149
322.149
322.149
322.149
322.149
171.989
30.2586
20.286
19.5967
19.55
19.5454
19.5461
19.5452
19.5466
19.5464
19.5463
19.5477
166.16
30.7928
20.3562
19.5966
19.5433
19.5385
19.5383
19.5391
19.5384
19.5391
19.5394
19.5419
160.713
30.1499
20.3008
19.5868
19.5368
19.5324
19.5322
19.5337
19.5326
19.5326
19.5331
19.5351
155.612
29.363
20.2122
19.5736
19.5305
19.5267
19.5271
19.5281
19.5276
19.5274
19.5284
19.529
150.824
28.6034
20.1282
19.5614
19.5242
19.5219
19.5217
19.5225
19.5223
19.5218
19.5223
19.523
146.323
27.9034
20.0537
19.5502
19.5186
19.5171
19.5166
19.517
19.5171
19.5168
19.5171
19.518
142.082
27.2701
19.9865
19.5404
19.5135
19.5124
19.5118
19.5122
19.5119
19.5125
19.5127
19.5134
138.081
26.6925
19.928
19.5315
19.5087
19.5078
19.5075
19.5081
19.5078
19.5081
19.5084
19.509
134.298
26.1664
19.8772
19.5236
19.5049
19.5032
19.5039
19.5038
19.504
19.5039
19.5042
19.5047
130.717
39.2308
34.2889
34.0165
33.9915
33.9817
33.9817
33.9763
33.9749
33.964
33.9681
33.9922
127.322
93.6142
91.4658
91.3215
91.3116
91.274
91.2583
91.244
91.2601
91.2525
91.2522
91.1897
322.149
322.149
322.149
322.149
322.149
322.149
322.149
322.149
322.149
322.149
322.149
322.149
)
;

boundaryField
{
    rotor
    {
        Cmu             0.09;
        kappa           0.41;
        E               9.8;
        type            epsilonWallFunction;
        value           nonuniform List<scalar> 
48
(
576.063
314.621
314.621
314.621
314.621
314.621
314.621
314.621
314.621
314.621
314.621
314.621
314.621
314.621
314.621
314.621
314.621
314.621
314.621
314.621
314.621
314.621
314.621
576.063
576.063
515.543
466.522
426.008
391.966
362.959
337.948
316.16
297.011
280.049
264.918
251.339
576.063
515.543
466.522
426.008
391.966
362.959
337.948
316.16
297.011
280.049
264.918
251.339
)
;
    }
    stator
    {
        Cmu             0.09;
        kappa           0.41;
        E               9.8;
        type            epsilonWallFunction;
        value           nonuniform List<scalar> 
48
(
322.149
322.149
322.149
322.149
322.149
322.149
322.149
322.149
322.149
322.149
322.149
322.149
322.149
322.149
322.149
322.149
322.149
322.149
322.149
322.149
322.149
322.149
322.149
322.149
171.989
166.16
160.713
155.612
150.824
146.323
142.082
138.081
134.298
130.717
127.322
322.149
171.989
166.16
160.713
155.612
150.824
146.323
142.082
138.081
134.298
130.717
127.322
322.149
)
;
    }
    front
    {
        type            empty;
    }
    back
    {
        type            empty;
    }
    procBoundary3to1
    {
        type            processor;
        value           nonuniform List<scalar> 
20
(
58.6561
26.5229
20.8462
19.8582
19.6463
19.596
19.5782
19.5681
19.5607
19.5533
19.5462
19.5407
19.5338
19.5282
19.5234
19.5184
19.5141
33.0473
90.9352
322.149
)
;
    }
    procBoundary3to2
    {
        type            processor;
        value           nonuniform List<scalar> 
20
(
71.8482
28.9059
21.3006
19.9078
19.6454
19.5855
19.5674
19.5566
19.5487
19.542
19.5353
19.5289
19.5232
19.5185
19.5134
19.509
19.5047
33.9911
91.1799
322.149
)
;
    }
}


// ************************************************************************* //
