/*--------------------------------*- C++ -*----------------------------------*\
  =========                 |
  \\      /  F ield         | OpenFOAM: The Open Source CFD Toolbox
   \\    /   O peration     | Website:  https://openfoam.org
    \\  /    A nd           | Version:  6
     \\/     M anipulation  |
\*---------------------------------------------------------------------------*/
FoamFile
{
    version     2.0;
    format      ascii;
    class       volVectorField;
    location    "500";
    object      U;
}
// * * * * * * * * * * * * * * * * * * * * * * * * * * * * * * * * * * * * * //

dimensions      [0 1 -1 0 0 0 0];

internalField   nonuniform List<vector> 
768
(
(-0.0288661 0.0148727 -4.95598e-22)
(-0.0617432 0.00631743 0)
(-0.0646729 0.00949359 0)
(-0.0618673 0.012798 -3.66074e-19)
(-0.0589642 0.0160632 5.86133e-19)
(-0.0558497 0.0191599 0)
(-0.0526341 0.022061 0)
(-0.0494112 0.0247989 4.10719e-19)
(-0.0462695 0.0274051 4.7219e-19)
(-0.0432493 0.0299459 1.58282e-18)
(-0.0403754 0.0324621 3.03368e-18)
(-0.0376407 0.0350243 -5.26525e-19)
(-0.0302398 0.00300235 2.63135e-20)
(-0.0649899 0.00246288 0)
(-0.0646533 0.00642222 0)
(-0.0614414 0.00950842 -1.5038e-19)
(-0.0583429 0.0125426 4.89797e-19)
(-0.0551309 0.0155889 -1.68757e-18)
(-0.0518514 0.0185979 1.20595e-18)
(-0.048559 0.0215711 3.98979e-19)
(-0.0453182 0.0244848 -8.83816e-19)
(-0.0421489 0.0273768 7.68081e-21)
(-0.0390747 0.0302484 0)
(-0.0360804 0.0331512 -2.41225e-18)
(-0.0341967 -0.00374101 -1.78867e-20)
(-0.0720711 -0.000900743 0)
(-0.0701581 0.00335469 0)
(-0.0659283 0.00657174 -1.28222e-20)
(-0.0620298 0.00978739 1.30976e-20)
(-0.0581682 0.013099 -6.01264e-19)
(-0.0543454 0.0164514 0)
(-0.0505845 0.0198156 -2.58057e-18)
(-0.0469174 0.0231556 2.70989e-18)
(-0.0433464 0.0264811 -1.04134e-18)
(-0.0398727 0.0297914 -2.40976e-18)
(-0.0364773 0.0331192 3.66593e-18)
(-0.0371944 -0.0107164 1.22432e-20)
(-0.0782272 -0.00557006 1.92338e-20)
(-0.0746823 -0.000938481 0)
(-0.0693819 0.00262615 1.74297e-19)
(-0.0645948 0.00619768 -2.43841e-19)
(-0.0600063 0.00992047 6.1886e-19)
(-0.055614 0.0136637 0)
(-0.0513772 0.0174537 -8.85635e-19)
(-0.0473327 0.0211693 -3.04753e-18)
(-0.0434058 0.0248918 2.07342e-18)
(-0.0396291 0.0285405 2.49092e-18)
(-0.0359018 0.0322229 -5.08731e-18)
(-0.0398325 -0.0188658 -1.21393e-20)
(-0.0836855 -0.0114697 -1.96177e-20)
(-0.0782192 -0.00640135 1.44017e-19)
(-0.0717591 -0.00234371 0)
(-0.0660086 0.00181981 -1.19755e-18)
(-0.0607255 0.00604545 1.32444e-18)
(-0.0557704 0.0103477 8.22597e-19)
(-0.0511649 0.0145469 9.03312e-19)
(-0.0467784 0.0187216 0)
(-0.0426319 0.0227509 0)
(-0.0385838 0.0267605 0)
(-0.0346653 0.0306713 -6.75738e-21)
(-0.0421401 -0.0287248 6.25076e-21)
(-0.0883221 -0.0187896 0)
(-0.0806101 -0.0130435 -1.45805e-19)
(-0.0728074 -0.00819022 5.03508e-19)
(-0.06615 -0.00323753 5.50777e-19)
(-0.0601993 0.00172999 -1.62892e-18)
(-0.0548449 0.0066356 7.55553e-19)
(-0.0499517 0.0113621 -3.97347e-18)
(-0.0453985 0.0159343 -1.99019e-19)
(-0.0411027 0.0203108 -1.15381e-19)
(-0.0369437 0.0245668 -8.19854e-20)
(-0.0328866 0.0286989 7.98199e-18)
(-0.0439941 -0.0409483 -3.56396e-20)
(-0.091868 -0.0278277 1.30147e-19)
(-0.0814674 -0.020956 -4.28315e-19)
(-0.0723297 -0.0147905 -5.06665e-19)
(-0.0648015 -0.00874758 -1.3738e-18)
(-0.0583859 -0.00280379 -9.03002e-19)
(-0.0528274 0.00277087 -1.89829e-18)
(-0.0478306 0.00809833 3.86299e-18)
(-0.0432923 0.0130181 0)
(-0.0389687 0.0177384 4.73698e-18)
(-0.0348544 0.022147 -7.71725e-18)
(-0.0307256 0.0264508 2.71916e-18)
(-0.045094 -0.0563766 -1.00955e-19)
(-0.0938064 -0.0390381 -2.69702e-19)
(-0.0803275 -0.0300837 6.22113e-19)
(-0.0698722 -0.0220455 0)
(-0.0618103 -0.0144197 -7.69805e-19)
(-0.0552811 -0.00739716 1.63615e-18)
(-0.0497729 -0.000966814 4.67898e-20)
(-0.0449606 0.00485821 1.77725e-19)
(-0.0405634 0.0102068 -2.15745e-18)
(-0.0364332 0.0151141 -4.81708e-18)
(-0.032405 0.0197107 2.55802e-18)
(-0.0283942 0.0240279 -2.8056e-18)
(-0.045099 -0.0764447 5.74705e-20)
(-0.0932652 -0.0527787 0)
(-0.0763944 -0.040338 0)
(-0.0651299 -0.0294983 0)
(-0.0570653 -0.0199687 7.67609e-19)
(-0.0508897 -0.01167 0)
(-0.0458329 -0.00444106 -1.2698e-19)
(-0.0414369 0.00190697 4.26747e-18)
(-0.0374088 0.00755742 1.02695e-19)
(-0.0335724 0.0126482 2.42024e-18)
(-0.0297833 0.0173052 -2.65552e-18)
(-0.0259366 0.0216195 8.11712e-18)
(-0.0429145 -0.10297 3.55317e-22)
(-0.0887354 -0.0691511 7.11869e-19)
(-0.0686531 -0.0509762 -2.98846e-19)
(-0.0575894 -0.0364818 0)
(-0.0505274 -0.0248143 0)
(-0.0453658 -0.0152953 0)
(-0.0411704 -0.00737267 0)
(-0.0374537 -0.000627326 2.25931e-18)
(-0.0339632 0.00522932 -9.26323e-18)
(-0.0305426 0.0104089 -4.95168e-18)
(-0.0270793 0.0150588 5.19768e-18)
(-0.0234817 0.0192902 2.7964e-18)
(-0.036815 -0.138734 -3.251e-19)
(-0.0769228 -0.0867248 -5.11446e-19)
(-0.0556527 -0.0603293 -4.74433e-19)
(-0.0471863 -0.041844 0)
(-0.0424349 -0.028318 0)
(-0.0390096 -0.0179168 2.04349e-18)
(-0.0360453 -0.00956243 -4.33302e-18)
(-0.0332159 -0.00261866 9.00643e-18)
(-0.030382 0.00330778 7.11775e-18)
(-0.0274613 0.00847242 4.9073e-18)
(-0.0243925 0.0130381 -5.15109e-18)
(-0.0211054 0.0171177 1.35518e-20)
(-0.0220929 -0.188489 -2.86155e-19)
(-0.0503545 -0.0994484 0)
(-0.0361566 -0.0652691 8.27571e-19)
(-0.0342993 -0.0442361 -2.91703e-18)
(-0.0334307 -0.0299212 2.99545e-18)
(-0.0322991 -0.0192969 9.78478e-20)
(-0.0307856 -0.0109116 2.13203e-18)
(-0.0289436 -0.00401628 -2.16117e-18)
(-0.0268179 0.00182774 -1.18053e-17)
(-0.02444 0.0068744 0)
(-0.0218055 0.0112853 0)
(-0.0188758 0.015157 1.22486e-20)
(-0.035024 0.0376614 -6.96804e-19)
(-0.0324875 0.0404281 -1.50674e-18)
(-0.0299831 0.0433261 -4.17315e-18)
(-0.0274561 0.0463754 6.96607e-18)
(-0.0248503 0.0495332 -2.67125e-18)
(-0.0221138 0.0527685 9.92273e-19)
(-0.0192037 0.0559743 -2.17818e-18)
(-0.0160936 0.0590266 4.49042e-18)
(-0.0127337 0.0620113 -1.71716e-18)
(-0.00945505 0.0648278 1.03164e-21)
(-0.00621424 0.0620094 0)
(-0.0148078 0.029188 0)
(-0.0331614 0.0360921 5.34393e-18)
(-0.0302814 0.0391154 -1.30812e-18)
(-0.0274222 0.0422161 7.67315e-21)
(-0.0245445 0.0454132 0)
(-0.0216333 0.0486747 -1.73154e-18)
(-0.0186668 0.05198 0)
(-0.0156561 0.055257 -1.05393e-18)
(-0.0126202 0.0584204 2.03573e-18)
(-0.00957803 0.0615365 0)
(-0.0064748 0.0648101 1.80571e-18)
(-0.00249878 0.0652513 -1.21452e-18)
(-0.0030811 0.0305503 2.53194e-19)
(-0.0331406 0.0364786 1.4651e-18)
(-0.0298352 0.0399045 -4.28986e-18)
(-0.0265377 0.0434088 1.57747e-18)
(-0.0232264 0.047012 0)
(-0.0198912 0.0507058 1.80222e-18)
(-0.0165368 0.054486 3.94348e-18)
(-0.0131861 0.0583124 -4.96536e-18)
(-0.00989172 0.0621279 2.22935e-18)
(-0.00668836 0.0660268 -1.08826e-18)
(-0.00348162 0.0703199 0)
(0.000802706 0.0723366 0)
(0.00361535 0.0345192 -2.55183e-19)
(-0.0322606 0.0358874 -2.89975e-18)
(-0.0285999 0.0396428 2.90825e-18)
(-0.0249607 0.0434571 3.3178e-18)
(-0.0212595 0.047417 -1.48386e-18)
(-0.017546 0.0515014 -3.53601e-18)
(-0.0137785 0.0557586 0)
(-0.0100376 0.0601667 -8.32599e-20)
(-0.0063457 0.0647144 4.39157e-18)
(-0.0027827 0.0694903 -3.43783e-18)
(0.000768537 0.0748494 1.28035e-18)
(0.00544895 0.0784919 5.2293e-20)
(0.0105353 0.0375244 -9.87727e-19)
(-0.0307396 0.0346236 2.94537e-18)
(-0.0268379 0.0385719 -1.41884e-18)
(-0.02286 0.0426533 3.3472e-18)
(-0.0188338 0.0468483 -1.61116e-18)
(-0.0147011 0.0512698 0)
(-0.0105049 0.0559241 0)
(-0.00624947 0.0608881 -2.08578e-18)
(-0.00201712 0.0661448 -4.44037e-18)
(0.00211471 0.0718492 2.26731e-18)
(0.00619131 0.0783662 1.23216e-18)
(0.0112539 0.0839649 -1.32589e-18)
(0.0185866 0.0402144 0)
(-0.0288012 0.0327938 9.60898e-20)
(-0.0247028 0.0368935 -6.01942e-18)
(-0.0204679 0.0410801 0)
(-0.0161331 0.0454343 3.54735e-18)
(-0.0115998 0.0500323 -3.54735e-18)
(-0.00691365 0.0549791 0)
(-0.00203857 0.0603554 8.71478e-20)
(0.00291673 0.0662672 8.79407e-20)
(0.00784517 0.0728825 0)
(0.0126734 0.0807578 -2.46502e-18)
(0.0184528 0.0886274 1.34503e-18)
(0.0282226 0.0424798 -9.38231e-19)
(-0.0266261 0.0305835 -2.88428e-18)
(-0.0223628 0.0347333 9.09217e-18)
(-0.017991 0.0389077 0)
(-0.0133546 0.0432658 -3.51108e-18)
(-0.00847059 0.0478832 3.51108e-18)
(-0.00323295 0.0529186 3.91685e-18)
(0.00234113 0.0585208 -3.78043e-18)
(0.00821748 0.0649006 -2.07272e-18)
(0.014249 0.0723937 0)
(0.0203687 0.0815602 -1.15235e-18)
(0.0272339 0.0921777 1.27295e-18)
(0.0401645 0.0444506 0)
(-0.0242829 0.0281853 5.76871e-18)
(-0.020017 0.0322375 -6.01584e-18)
(-0.0155063 0.0363156 6.47137e-18)
(-0.0106779 0.0405085 -6.74141e-18)
(-0.00542553 0.0449648 -1.78875e-19)
(0.000342577 0.0498418 3.63441e-18)
(0.0067147 0.0553843 3.97893e-18)
(0.0137061 0.0619128 0)
(0.0212808 0.0699094 -2.15748e-18)
(0.029266 0.0804681 4.67498e-18)
(0.0382171 0.0941184 -1.27455e-18)
(0.0553147 0.0454374 0)
(-0.0219374 0.0256796 2.94133e-18)
(-0.0177025 0.0295879 6.20602e-20)
(-0.0131534 0.0334339 -3.17641e-18)
(-0.00815965 0.0373447 0)
(-0.00261575 0.0414315 0)
(0.00367265 0.045893 0)
(0.0108385 0.0509866 0)
(0.0191024 0.0571653 -3.93156e-18)
(0.0285695 0.0652052 2.15132e-18)
(0.0393491 0.0764803 -9.90872e-20)
(0.0517421 0.0935865 0)
(0.0751183 0.0455518 0)
(-0.019658 0.0231965 -2.7818e-18)
(-0.0155332 0.0268726 -8.91689e-18)
(-0.0109954 0.0304133 0)
(-0.00593072 0.0339099 3.12431e-18)
(-0.000161251 0.0374711 6.65229e-18)
(0.00651483 0.0412448 0)
(0.0143925 0.045491 0)
(0.0238631 0.0506626 2.10388e-18)
(0.0354688 0.057689 -5.90049e-18)
(0.0498775 0.0688517 -1.10402e-19)
(0.0680458 0.0890924 0)
(0.101448 0.0432611 0)
(-0.0175225 0.0208075 -2.75284e-18)
(-0.0135628 0.0241897 -2.83881e-18)
(-0.00911244 0.0273566 6.06489e-18)
(-0.00405848 0.0303579 -9.59771e-18)
(0.00180007 0.0332697 3.0732e-18)
(0.00868518 0.0361555 6.71148e-18)
(0.017011 0.0391723 -1.68259e-18)
(0.0273668 0.0426259 1.93545e-18)
(0.04083 0.0473858 3.89991e-18)
(0.0593135 0.0559273 -3.97539e-18)
(0.0856526 0.077318 -1.00421e-18)
(0.137039 0.0371887 0)
(-0.0155835 0.0185738 8.79527e-21)
(-0.0118353 0.0216198 5.77942e-18)
(-0.00754067 0.0243637 -5.9969e-18)
(-0.0025792 0.0268359 0)
(0.00320857 0.029037 -6.43582e-18)
(0.0100769 0.0309439 -9.84229e-18)
(0.01844 0.0325139 9.54325e-20)
(0.0290368 0.0337032 0)
(0.0433276 0.0346265 0)
(0.0643992 0.0365719 1.05243e-18)
(0.0983928 0.0509157 5.57371e-20)
(0.186451 0.0224955 5.55047e-19)
(0.140679 -0.130434 -3.23143e-20)
(0.0154469 -0.0907483 2.62287e-19)
(-0.0115937 -0.0616065 0)
(-0.0209724 -0.0426234 1.9295e-18)
(-0.0246157 -0.0293931 -9.5579e-19)
(-0.0258194 -0.0194042 -3.14191e-18)
(-0.0257249 -0.0114385 -2.25493e-18)
(-0.0248312 -0.00483496 2.25493e-18)
(-0.0233957 0.000777709 4.72124e-18)
(-0.0215564 0.00562335 4.95857e-18)
(-0.0193716 0.00982233 -5.12709e-18)
(-0.0168312 0.0134421 -5.28878e-18)
(0.0828495 -0.057748 9.94999e-27)
(0.0295077 -0.062634 1.13441e-18)
(0.00204031 -0.0502881 2.18402e-18)
(-0.0109623 -0.0376306 0)
(-0.0172093 -0.0270992 2.18139e-18)
(-0.0200894 -0.0184672 0)
(-0.0211222 -0.0112757 2.27627e-18)
(-0.0210303 -0.00516197 6.82808e-20)
(-0.0202061 0.000111343 -7.13401e-18)
(-0.0188662 0.004697 -4.88652e-18)
(-0.0171259 0.00865761 5.05259e-18)
(-0.0150065 0.0119969 5.2316e-18)
(0.0544205 -0.0260745 3.1365e-19)
(0.0283823 -0.0408914 -2.85304e-18)
(0.00788938 -0.0385606 -3.84193e-18)
(-0.00454875 -0.0314967 -1.09298e-18)
(-0.0115657 -0.0238878 -6.60166e-18)
(-0.015335 -0.0168672 3.35342e-18)
(-0.0171131 -0.0106228 -4.74743e-20)
(-0.0176237 -0.00511358 2.28658e-18)
(-0.0172923 -0.00024037 -5.39318e-20)
(-0.0163883 0.00406091 0)
(-0.0150727 0.0077926 0)
(-0.0134004 0.010851 7.19923e-21)
(0.0384437 -0.0137551 3.17254e-19)
(0.0242595 -0.0272109 1.1526e-18)
(0.00980767 -0.0290841 2.21889e-18)
(-0.000702968 -0.0256717 -2.25527e-18)
(-0.00748607 -0.020473 8.86382e-18)
(-0.0115394 -0.0149648 -4.4158e-18)
(-0.0137231 -0.00968698 0)
(-0.0146328 -0.00481128 4.64302e-18)
(-0.0146677 -0.000359577 4.68842e-18)
(-0.014116 0.00366978 0)
(-0.0131909 0.00722049 0)
(-0.0120198 0.0100533 -1.5221e-17)
(-0.0138715 0.0165349 5.4814e-18)
(-0.0103762 0.0192073 -5.64771e-18)
(-0.00628267 0.0215101 -8.78348e-18)
(-0.00149877 0.0234536 -8.775e-20)
(0.0040795 0.0249646 6.0611e-18)
(0.0106806 0.0259259 1.58642e-17)
(0.0186422 0.0260838 3.30378e-18)
(0.0286276 0.0249556 -3.28017e-18)
(0.0418669 0.0214005 0)
(0.0608621 0.0121837 9.87769e-20)
(0.0900144 -0.0145132 0)
(0.129207 -0.138411 -4.46072e-19)
(-0.0124177 0.0147234 0)
(-0.0091987 0.0169843 2.21502e-20)
(-0.00532264 0.0188517 5.73424e-18)
(-0.000780812 0.0202961 -8.80713e-18)
(0.00448667 0.0212011 -9.06027e-18)
(0.0106132 0.0213576 -6.2071e-18)
(0.0178255 0.0203946 7.77998e-18)
(0.0264739 0.0175976 4.79406e-18)
(0.0370366 0.0114602 -3.15956e-18)
(0.0497784 -0.00140034 1.64583e-18)
(0.0621849 -0.0286218 0)
(0.0575054 -0.0814192 0)
(-0.0112494 0.0131369 -5.29909e-18)
(-0.00830292 0.0149496 2.69819e-18)
(-0.00463795 0.0163983 -2.81294e-18)
(-0.000361167 0.0174069 2.85649e-18)
(0.00452733 0.0178194 8.76816e-18)
(0.0100662 0.0173726 0)
(0.0163485 0.0156616 -1.20328e-19)
(0.0234083 0.0119736 -3.09102e-18)
(0.0310753 0.005048 9.10125e-20)
(0.0382418 -0.00727396 -2.98734e-18)
(0.040708 -0.0276121 3.56799e-19)
(0.02619 -0.0534303 -3.56799e-19)
(-0.0104268 0.0117787 -5.2056e-18)
(-0.00768955 0.0130911 0)
(-0.00418854 0.0141448 5.47799e-18)
(-0.000164753 0.0148007 -8.37046e-18)
(0.00431405 0.0148432 2.81343e-18)
(0.00923409 0.0139968 0)
(0.0145598 0.0118751 -9.86208e-20)
(0.0201228 0.00789477 5.81217e-18)
(0.0253944 0.00119547 2.96843e-18)
(0.0289165 -0.00924543 7.51926e-20)
(0.0271968 -0.0236218 0)
(0.0139931 -0.0377056 6.6473e-19)
(0.0286176 -0.00820696 6.2452e-19)
(0.0201836 -0.0187792 0)
(0.00997403 -0.0219943 2.30781e-18)
(0.00146452 -0.0206965 2.21588e-18)
(-0.00461626 -0.0172619 -4.41377e-18)
(-0.00857667 -0.0130208 2.26607e-18)
(-0.0109089 -0.00863053 4.52774e-18)
(-0.0120411 -0.00436479 3.18513e-20)
(-0.0123165 -0.000327198 2.37134e-18)
(-0.012019 0.00346366 -7.13873e-18)
(-0.0114303 0.00694089 -2.40856e-18)
(-0.0108028 0.00972399 9.97333e-18)
(0.02217 -0.005359 -9.17282e-19)
(0.0167647 -0.013434 -2.99587e-19)
(0.00942571 -0.0168239 -2.26612e-18)
(0.00265476 -0.016659 0)
(-0.00261361 -0.0144287 -5.61938e-18)
(-0.0062855 -0.0111907 -3.31855e-18)
(-0.00859209 -0.00756472 5.32821e-20)
(-0.00981246 -0.00386356 2.29237e-18)
(-0.0102137 -0.00021875 -6.89407e-18)
(-0.0100552 0.0033639 9.3748e-18)
(-0.0096734 0.00691743 0)
(-0.00968786 0.0100921 9.78935e-18)
(0.0177168 -0.00372842 -1.5002e-18)
(0.0140558 -0.00992422 2.96132e-19)
(0.00864675 -0.0130389 0)
(0.00325311 -0.0134442 -4.51209e-18)
(-0.00121876 -0.0120174 5.53048e-18)
(-0.00451927 -0.00954767 5.58515e-18)
(-0.00669571 -0.00656121 -6.66985e-18)
(-0.00790811 -0.00337091 -9.03689e-18)
(-0.00833506 -0.000106058 -9.13306e-18)
(-0.00817747 0.00326152 1.15847e-17)
(-0.00781215 0.00702253 -2.33114e-18)
(-0.00838189 0.0117257 -1.91893e-17)
(0.0145294 -0.00271255 2.07332e-18)
(0.0119214 -0.00752442 2.92008e-19)
(0.0078458 -0.0102502 0)
(0.00353569 -0.0109047 5.53575e-18)
(-0.000240654 -0.0100057 -5.66587e-21)
(-0.00315187 -0.00811223 -1.06195e-18)
(-0.00514693 -0.00565775 0)
(-0.00628892 -0.00292349 2.18186e-18)
(-0.00667135 -4.2921e-05 6.72623e-18)
(-0.0063902 0.00302922 1.21258e-20)
(-0.00562838 0.00680858 9.20534e-18)
(-0.00643343 0.0156765 1.87368e-17)
(-0.0100549 0.0105883 1.02343e-17)
(-0.00736142 0.0113432 2.64506e-18)
(-0.00392092 0.0120596 -2.64506e-18)
(-0.000121538 0.0124596 5.45998e-18)
(0.00395249 0.0122577 0)
(0.0082699 0.0111851 8.37146e-18)
(0.0127158 0.00891014 -1.26832e-17)
(0.0170191 0.00501116 -7.12283e-18)
(0.0205362 -0.00100991 0)
(0.021942 -0.00946572 2.81227e-18)
(0.0188616 -0.0196353 0)
(0.00848155 -0.0280387 -6.5312e-19)
(-0.0103942 0.00950275 0)
(-0.00728603 0.00961326 0)
(-0.00375612 0.0101034 0)
(-0.000158475 0.0103589 -2.67332e-18)
(0.00352844 0.0100294 -3.04324e-20)
(0.00728246 0.00886354 -2.75918e-18)
(0.0109671 0.00660928 5.50248e-18)
(0.0142691 0.00298896 -5.4406e-18)
(0.0165783 -0.0022277 0)
(0.016842 -0.00896939 2.0061e-18)
(0.0135698 -0.0162975 9.86467e-19)
(0.00563605 -0.0216918 -3.22625e-19)
(-0.0119863 0.0082102 0)
(-0.00733727 0.00775908 7.54803e-18)
(-0.00359426 0.00823584 -3.72388e-20)
(-0.000207012 0.00847907 -3.09746e-20)
(0.0031011 0.00811906 2.60896e-18)
(0.00634443 0.00695793 2.61875e-18)
(0.00938773 0.00482759 3.97587e-18)
(0.0119212 0.00157156 2.68992e-18)
(0.0134225 -0.00286571 1.32286e-18)
(0.0131065 -0.00823414 -2.62047e-18)
(0.0100838 -0.0136384 -1.27095e-18)
(0.0039939 -0.0173095 0)
(-0.0158959 0.00629812 2.45536e-18)
(-0.00707421 0.00559106 -2.43767e-18)
(-0.00330373 0.00644913 0)
(-0.000213081 0.00681217 0)
(0.00270858 0.00649066 -2.5669e-18)
(0.0054925 0.00539612 -2.31562e-20)
(0.00800064 0.00344254 -7.72294e-18)
(0.00995315 0.000568968 0)
(0.0109199 -0.00317462 -5.10289e-18)
(0.010339 -0.007471 0)
(0.00769235 -0.0115504 -1.23145e-18)
(0.00295935 -0.0141676 0)
(0.0121753 -0.00203921 -5.79731e-19)
(0.0102536 -0.00583258 -5.63536e-19)
(0.00710848 -0.00815502 5.63536e-19)
(0.00362555 -0.00889696 0)
(0.000449886 -0.00834298 -5.48048e-18)
(-0.00209146 -0.00688251 -3.24992e-18)
(-0.00388682 -0.00486648 1.09425e-17)
(-0.00492826 -0.00253998 6.56049e-18)
(-0.00523644 -5.00672e-05 0)
(-0.00476304 0.00257526 6.34124e-21)
(-0.00298916 0.00531086 -9.02924e-18)
(0.00358277 0.00840995 -1.02665e-17)
(0.0104008 -0.00157078 -1.14146e-18)
(0.00893505 -0.00459969 -5.55506e-19)
(0.0064629 -0.00656585 -3.86281e-18)
(0.00362469 -0.00730461 1.08424e-18)
(0.00094434 -0.00697169 3.21993e-18)
(-0.00126392 -0.00583926 -1.07844e-17)
(-0.00286235 -0.0041824 -6.43344e-18)
(-0.00379941 -0.00221871 0)
(-0.00404589 -0.000104803 0)
(-0.0035026 0.00205449 -6.55381e-18)
(-0.00173459 0.00401628 -2.19734e-18)
(0.00233663 0.00536108 -9.87726e-18)
(0.00903609 -0.00123309 2.82193e-19)
(0.00789386 -0.00368081 2.48409e-18)
(0.00591043 -0.00533453 4.33258e-18)
(0.00356822 -0.006032 0)
(0.00130081 -0.00584085 -3.2076e-18)
(-0.000616945 -0.00495829 1.37864e-17)
(-0.00203387 -0.00359584 -6.37645e-18)
(-0.00287602 -0.00195018 0)
(-0.00308732 -0.00017827 0)
(-0.00257341 0.00156277 0)
(-0.00108369 0.00297262 0)
(0.001632 0.00363233 9.62804e-18)
(0.00797438 -0.000982536 0)
(0.00706104 -0.00297888 -1.62548e-18)
(0.00544539 -0.00437377 -5.37903e-19)
(0.00349503 -0.00500622 1.05329e-18)
(0.00156188 -0.00490557 2.08721e-18)
(-0.000106955 -0.00421184 -9.3819e-18)
(-0.00136455 -0.00309286 2.06036e-18)
(-0.00212539 -0.00171921 0)
(-0.00232581 -0.000248409 -8.38926e-18)
(-0.00189459 0.00114713 6.3111e-18)
(-0.00071647 0.00217283 -6.34464e-18)
(0.00115608 0.00251824 -9.33536e-18)
(0.00713768 -0.000792982 8.11241e-19)
(0.00639514 -0.00243328 2.67854e-19)
(0.00505613 -0.00360823 0)
(0.00341148 -0.00417455 -1.03656e-18)
(0.00175476 -0.00412703 -6.20739e-18)
(0.000294622 -0.00357981 -1.03047e-18)
(-0.000825814 -0.00265904 -2.21895e-20)
(-0.0015211 -0.00151791 -8.22089e-18)
(-0.00172716 -0.000303111 6.16495e-18)
(-0.00139541 0.000813389 -6.19606e-18)
(-0.000498274 0.00157888 8.2901e-18)
(0.000816654 0.00177115 1.4944e-20)
(0.00647409 -0.000646302 -1.32106e-18)
(0.00585773 -0.00200184 7.82346e-19)
(0.0047318 -0.00299567 -5.19436e-19)
(0.00333268 -0.00349817 1.01939e-18)
(0.0019022 -0.00347011 8.10785e-18)
(0.000612743 -0.00304184 1.00643e-18)
(-0.000389785 -0.00227767 6.0406e-18)
(-0.00103608 -0.00133678 1.41171e-17)
(-0.00125472 -0.000334727 2.01855e-18)
(-0.00102468 0.000558698 0)
(-0.000356741 0.00113994 0)
(0.000580154 0.00125652 8.87373e-18)
(0.00594425 -0.000530387 7.78367e-27)
(0.00542384 -0.00165505 -1.54251e-18)
(0.0044601 -0.00249783 -4.57197e-18)
(0.00326314 -0.0029327 0)
(0.00201528 -0.0029188 0)
(0.000866167 -0.00257636 -1.9849e-18)
(-4.07284e-05 -0.00194622 1.9849e-18)
(-0.000649204 -0.00116953 -1.58466e-17)
(-0.00088634 -0.000347625 -9.91672e-18)
(-0.00074815 0.000368824 3.9718e-18)
(-0.000264886 0.000818008 1.39253e-17)
(0.000404482 0.000892895 1.72938e-17)
(0.00552006 -0.000438433 7.6549e-19)
(0.00507095 -0.00137189 2.76732e-18)
(0.00423968 -0.00208128 7.4715e-18)
(0.00320226 -0.00247134 -7.90855e-18)
(0.00210818 -0.00243305 -6.87508e-18)
(0.00106677 -0.00217796 -2.92861e-18)
(0.00024319 -0.00164183 1.94991e-18)
(-0.000341762 -0.00101441 7.7759e-18)
(-0.000595812 -0.000336423 2.33489e-17)
(-0.000540105 0.00023406 1.55837e-17)
(-0.000200307 0.000583663 -4.78815e-21)
(0.000280429 0.000634965 -9.69037e-21)
(0.00518226 -0.000363714 -9.9923e-19)
(0.00478941 -0.00113431 -1.97748e-18)
(0.0040513 -0.00173369 -3.91251e-18)
(0.003165 -0.00204596 1.4557e-17)
(0.00217982 -0.00203777 7.70938e-18)
(0.00123198 -0.00180815 9.6132e-19)
(0.000465603 -0.00138432 -7.65171e-18)
(-9.74379e-05 -0.000857837 0)
(-0.000373128 -0.000315289 6.6947e-21)
(-0.000384855 0.000144371 -3.05734e-17)
(-0.000157437 0.000413346 -1.72174e-17)
(0.000185269 0.000447701 2.05439e-18)
(0.00491419 -0.000301172 0)
(0.0045599 -0.000936398 2.42276e-18)
(0.00391739 -0.00142408 -4.32748e-18)
(0.00313631 -0.00165244 -7.61927e-18)
(0.00222966 -0.00170001 -6.62972e-18)
(0.00136986 -0.00147704 -2.82453e-18)
(0.000632832 -0.00115768 -1.10542e-21)
(9.73966e-05 -0.000711232 -1.31238e-17)
(-0.000207991 -0.000283482 -3.18559e-17)
(-0.000269505 8.53963e-05 1.68719e-17)
(-0.000132195 0.000288879 0)
(0.000113707 0.000310058 -3.22366e-17)
(0.00470373 -0.000239154 0)
(0.00439059 -0.000729725 -3.33574e-18)
(0.00382804 -0.00107924 3.29846e-18)
(0.0031205 -0.00126991 -9.32424e-19)
(0.00229512 -0.00130784 1.57991e-17)
(0.00149171 -0.00114248 7.39854e-18)
(0.000791452 -0.000887468 7.37087e-18)
(0.000258786 -0.000547227 1.47177e-17)
(-7.10382e-05 -0.000219539 1.47113e-17)
(-0.000189553 4.95966e-05 0)
(-0.00012881 0.000187829 0)
(3.49707e-05 0.000184601 1.57608e-17)
(0.00803618 -0.00030958 -1.66247e-18)
(0.0075465 -0.000901723 1.39837e-17)
(0.00665537 -0.00132652 5.7021e-18)
(0.00550188 -0.00155908 1.29353e-17)
(0.00416052 -0.00158802 -1.28463e-17)
(0.002826 -0.00137193 -3.18885e-18)
(0.00163674 -0.00102925 3.1909e-18)
(0.000695508 -0.000597622 -3.17899e-18)
(6.5915e-05 -0.000194101 3.17899e-18)
(-0.000235042 0.000107159 0)
(-0.000242717 0.000224609 0)
(-6.89554e-05 0.000163605 2.86744e-17)
(-0.0086078 -0.00370997 0)
(-0.00552412 0.00296624 -1.21732e-17)
(-0.00280349 0.0048269 2.44691e-18)
(-0.000157698 0.00537214 0)
(0.00236952 0.00511983 0)
(0.00474104 0.00412157 2.51216e-18)
(0.00680655 0.00236353 3.78993e-18)
(0.0083202 -0.000145467 -1.25568e-18)
(0.00893572 -0.00329692 5.00527e-18)
(0.0082585 -0.00676423 0)
(0.0059953 -0.00991129 2.431e-18)
(0.00226305 -0.0118477 5.93465e-19)
(-0.00551922 -0.00243118 0)
(-0.00419383 0.00172282 0)
(-0.0022404 0.00356652 -9.64416e-18)
(-6.29897e-05 0.00417514 0)
(0.00208348 0.00397942 -2.44561e-18)
(0.00408719 0.00308198 4.89597e-18)
(0.00578718 0.00151716 -1.22312e-17)
(0.00696754 -0.00066268 -1.21824e-18)
(0.00735271 -0.00331913 1.21824e-18)
(0.00666755 -0.00614421 4.79496e-18)
(0.00475207 -0.00861951 0)
(0.00177001 -0.0100961 -5.8201e-19)
(-0.00375669 -0.00170629 0)
(-0.00311544 0.00108114 -2.35721e-18)
(-0.00171419 0.00263911 1.41848e-17)
(4.29845e-05 0.0032101 -2.37053e-18)
(0.00184253 0.00304515 0)
(0.00352287 0.00223943 -7.16164e-18)
(0.00492211 0.000852354 1.67479e-17)
(0.00584686 -0.00103982 0)
(0.00608169 -0.00328818 0)
(0.00543159 -0.00561412 -4.11939e-18)
(0.00381709 -0.0075958 1.72929e-18)
(0.00140763 -0.00875026 5.69336e-19)
(-0.00261827 -0.00121054 0)
(-0.00228859 0.000722708 0)
(-0.00126981 0.00195842 -9.27096e-18)
(0.00014034 0.00244275 2.33117e-18)
(0.00163305 0.00228368 -2.33117e-18)
(0.00303623 0.00155684 2.10449e-17)
(0.00418493 0.000326 -2.37053e-18)
(0.00491467 -0.00131944 5.80882e-18)
(0.00504964 -0.00323347 -5.77957e-18)
(0.00445623 -0.00516798 4.57708e-18)
(0.00309724 -0.0067802 -2.26687e-18)
(0.00113341 -0.00770229 -5.58262e-19)
(-0.00184686 -0.000857762 0)
(-0.00166945 0.000510948 9.06388e-18)
(-0.000910688 0.00146045 9.09065e-18)
(0.000216024 0.00183751 0)
(0.00144945 0.00167115 -6.84625e-18)
(0.00261239 0.00100619 -1.37287e-17)
(0.00355764 -8.96457e-05 -1.48459e-17)
(0.00413301 -0.00152848 3.39019e-18)
(0.00420526 -0.00316937 4.52933e-18)
(0.00367387 -0.00479697 -4.48807e-18)
(0.00253182 -0.00612777 0)
(0.000920448 -0.00687783 0)
(-0.00131389 -0.000606149 0)
(-0.00121124 0.00037465 -8.88798e-18)
(-0.000633648 0.00109039 2.23083e-18)
(0.000265074 0.00136036 -2.23083e-18)
(0.00128267 0.00117863 8.95464e-18)
(0.00223943 0.000561157 2.23523e-18)
(0.00301881 -0.000420528 6.70974e-18)
(0.00347162 -0.00168744 -1.89098e-17)
(0.00350581 -0.003106 1.10897e-18)
(0.00303701 -0.00448982 -5.45221e-19)
(0.00207932 -0.00560483 5.45221e-19)
(0.000753163 -0.0062258 0)
(-0.000935673 -0.000423317 0)
(-0.000871781 0.000285844 -1.74505e-17)
(-0.000428188 0.000812802 0)
(0.000291578 0.000987396 -8.75199e-18)
(0.00112412 0.000784413 6.56794e-18)
(0.00191067 0.000205185 1.31322e-17)
(0.00254994 -0.000684313 -1.09717e-18)
(0.00290959 -0.00180828 7.62688e-18)
(0.00291871 -0.00304806 0)
(0.00251254 -0.00423833 -5.33885e-19)
(0.00171186 -0.00518622 5.33885e-19)
(0.000619087 -0.00570788 0)
(-0.000664742 -0.000289681 0)
(-0.000626227 0.000222004 -2.14628e-18)
(-0.000277185 0.000605721 2.1412e-18)
(0.000288662 0.000691766 -8.57467e-18)
(0.000977715 0.000472384 -1.71717e-17)
(0.00160914 -8.41217e-05 -6.44314e-18)
(0.00214349 -0.000893793 -2.14249e-18)
(0.00242065 -0.00190412 -9.5826e-18)
(0.00242322 -0.00299705 1.06252e-18)
(0.00207217 -0.00403452 -4.72485e-18)
(0.0014087 -0.00485152 5.23011e-19)
(0.000507748 -0.00529662 0)
(-0.000471189 -0.000191123 -1.80798e-17)
(-0.000443224 0.000179715 1.67928e-17)
(-0.000182509 0.000445337 -1.47088e-17)
(0.000275381 0.000466058 -2.0955e-18)
(0.0008221 0.000219441 8.41788e-18)
(0.00134589 -0.000309273 2.09909e-18)
(0.00177397 -0.00106537 -2.09909e-18)
(0.00200255 -0.00197618 9.64689e-21)
(0.00199392 -0.00295745 0)
(0.00170222 -0.00387015 4.12155e-18)
(0.00115294 -0.00458655 0)
(0.000416709 -0.00497199 0)
(-0.000327952 -0.000119016 1.76741e-17)
(-0.000314583 0.000153054 -1.85403e-17)
(-0.000126054 0.000320934 1.8553e-17)
(0.000244004 0.000293768 1.65045e-17)
(0.000665627 1.6223e-05 2.06132e-18)
(0.00110946 -0.000487967 8.23445e-18)
(0.00144075 -0.00120247 -9.2489e-18)
(0.00163981 -0.00203529 6.14387e-18)
(0.00162127 -0.00292445 1.02015e-18)
(0.00138663 -0.00374166 4.03702e-18)
(0.00093607 -0.00437765 -2.00074e-18)
(0.000336543 -0.00471561 0)
(-0.000198905 -3.80104e-05 0)
(-0.000215466 0.000144866 1.61697e-17)
(-9.17421e-05 0.000234733 -1.82031e-17)
(0.000170558 0.000146163 4.04608e-18)
(0.000490544 -0.000155073 -4.04466e-18)
(0.00082847 -0.000656255 -8.07935e-18)
(0.00108842 -0.00133177 1.10851e-17)
(0.00124334 -0.00210567 -1.00533e-18)
(0.00123554 -0.00291467 0)
(0.00105679 -0.00365182 -3.9611e-18)
(0.00071358 -0.00421872 5.8883e-18)
(0.00025027 -0.00451742 0)
(-0.000180892 7.28654e-05 -3.14653e-17)
(-0.000266041 0.0002767 2.7939e-17)
(-0.00017662 0.000313918 2.79549e-17)
(0.000106569 6.11329e-05 0)
(0.00049418 -0.000519953 -2.7954e-17)
(0.000919828 -0.00140905 -2.44315e-17)
(0.00126584 -0.00255231 1.04358e-17)
(0.00147929 -0.0038389 -1.72773e-18)
(0.00149091 -0.0051565 1.72773e-18)
(0.00128345 -0.00634487 0)
(0.000868078 -0.00724784 -5.44947e-22)
(0.000302402 -0.00771979 1.67912e-18)
)
;

boundaryField
{
    rotor
    {
        type            fixedValue;
        value           nonuniform List<vector> 
48
(
(-0.201784 0.00660572 0)
(-0.20092 0.0197889 0)
(-0.199195 0.0328873 0)
(-0.196618 0.0458448 0)
(-0.193198 0.0586061 0)
(-0.188952 0.0711164 0)
(-0.183896 0.0833222 0)
(-0.178053 0.0951712 0)
(-0.171447 0.106613 0)
(-0.164107 0.117597 0)
(-0.156065 0.128079 0)
(-0.147354 0.138012 0)
(-0.138012 0.147354 0)
(-0.128079 0.156065 0)
(-0.117597 0.164107 0)
(-0.106613 0.171447 0)
(-0.0951712 0.178053 0)
(-0.0833222 0.183896 0)
(-0.0711164 0.188952 0)
(-0.0586061 0.193198 0)
(-0.0458448 0.196618 0)
(-0.0328873 0.199195 0)
(-0.0197889 0.20092 0)
(-0.00660572 0.201784 0)
(0 0.214625 0)
(0 0.239875 0)
(0 0.265125 0)
(0 0.290375 0)
(0 0.315625 0)
(0 0.340875 0)
(0 0.366125 0)
(0 0.391375 0)
(0 0.416625 0)
(0 0.441875 0)
(0 0.467125 0)
(0 0.492375 0)
(-0.214625 3.8523e-10 0)
(-0.239875 4.30551e-10 0)
(-0.265125 4.75872e-10 0)
(-0.290375 5.21193e-10 0)
(-0.315625 5.66514e-10 0)
(-0.340875 6.11835e-10 0)
(-0.366125 6.57157e-10 0)
(-0.391375 7.02478e-10 0)
(-0.416625 7.47799e-10 0)
(-0.441875 7.9312e-10 0)
(-0.467125 8.38441e-10 0)
(-0.492375 8.83762e-10 0)
)
;
    }
    stator
    {
        type            noSlip;
    }
    front
    {
        type            empty;
    }
    back
    {
        type            empty;
    }
    procBoundary3to1
    {
        type            processor;
        value           nonuniform List<vector> 
20
(
(-0.128545 -0.138467 2.30938e-19)
(-0.0569264 -0.0814093 0)
(-0.0257034 -0.0534094 -2.99347e-19)
(-0.0135917 -0.0376791 -6.25183e-19)
(-0.00815008 -0.0280146 6.14264e-19)
(-0.00536312 -0.0216684 -2.9948e-19)
(-0.0037694 -0.0172865 0)
(-0.00277795 -0.0141447 0)
(-0.00211746 -0.0118252 -5.81291e-19)
(-0.00165467 -0.010074 5.70072e-19)
(-0.00131732 -0.00872862 -5.60282e-19)
(-0.00106421 -0.00768094 5.49385e-19)
(-0.000867021 -0.00685736 0)
(-0.000709939 -0.00620518 0)
(-0.000583236 -0.00568654 0)
(-0.000476172 -0.00527462 0)
(-0.000392511 -0.004947 0)
(-0.000324213 -0.00469148 0)
(-0.000252819 -0.00449363 0)
(-0.000311718 -0.00768103 -1.66254e-18)
)
;
    }
    procBoundary3to2
    {
        type            processor;
        value           nonuniform List<vector> 
20
(
(0.140607 0.13094 8.95785e-19)
(0.0828129 0.0582687 -3.78697e-19)
(0.0543939 0.0265865 -1.44727e-20)
(0.0384122 0.0142546 -1.00352e-18)
(0.0285875 0.00868644 1.30343e-18)
(0.0221377 0.0058146 -3.14144e-19)
(0.0176857 0.00415554 -6.20149e-19)
(0.0144977 0.00310946 1.21532e-18)
(0.0121446 0.00240386 -5.95266e-19)
(0.0103709 0.00190219 -5.81785e-19)
(0.00900699 0.00153127 5.70496e-19)
(0.00794659 0.00124716 -2.81295e-19)
(0.00711005 0.00102592 1.09397e-18)
(0.0064466 0.000847562 -1.07274e-18)
(0.00591546 0.00070339 2.6432e-19)
(0.00549021 0.00057921 -1.03033e-18)
(0.00515079 0.000474782 1.01064e-18)
(0.00488076 0.000384236 9.91008e-19)
(0.00467576 0.000285287 -1.21666e-18)