/*--------------------------------*- C++ -*----------------------------------*\
  =========                 |
  \\      /  F ield         | OpenFOAM: The Open Source CFD Toolbox
   \\    /   O peration     | Website:  https://openfoam.org
    \\  /    A nd           | Version:  6
     \\/     M anipulation  |
\*---------------------------------------------------------------------------*/
FoamFile
{
    version     2.0;
    format      ascii;
    class       volScalarField;
    location    "2000";
    object      nut;
}
// * * * * * * * * * * * * * * * * * * * * * * * * * * * * * * * * * * * * * //

dimensions      [0 2 -1 0 0 0 0];

internalField   nonuniform List<scalar> 
3072
(
4.64366e-05
0.000128644
0.000151077
0.000164669
0.000170729
0.000174676
0.000175457
0.000175389
0.000171789
0.000170428
0.000173509
0.000176938
8.13824e-05
0.00054304
0.000887208
0.00109866
0.00122492
0.00129288
0.0013348
0.00135857
0.00137567
0.00137912
0.00137641
0.00137699
9.06684e-05
0.000728592
0.00149873
0.00217729
0.00263095
0.002865
0.00296862
0.00301046
0.00302827
0.00303296
0.00303127
0.00302866
0.000104578
0.000837721
0.00181838
0.00280149
0.00349521
0.00384849
0.00399196
0.00404383
0.0040614
0.00406563
0.00406471
0.00406291
0.000114685
0.000894245
0.00198128
0.00308264
0.0038448
0.00421527
0.00435696
0.00440431
0.00441878
0.0044225
0.00442294
0.00442254
0.000126878
0.000959196
0.002103
0.00324017
0.00399356
0.00433989
0.00446548
0.00450489
0.00451645
0.00451965
0.00451986
0.00451926
0.000134508
0.00101985
0.00220898
0.00335708
0.00407959
0.00439375
0.00450196
0.00453489
0.00454404
0.00454534
0.00454445
0.00454308
0.00014747
0.00107809
0.0023048
0.00345275
0.00414164
0.00442609
0.00451973
0.00454653
0.00455282
0.00455369
0.00455362
0.00455228
0.000164077
0.00111243
0.00237948
0.0035288
0.00418942
0.00444986
0.00453093
0.00455222
0.00455769
0.0045592
0.00455785
0.00455749
0.000173495
0.00110471
0.00242632
0.00358681
0.00422725
0.00446722
0.00453833
0.0045547
0.00455769
0.00456021
0.00456067
0.00456074
0.000178496
0.00104982
0.00245881
0.00364783
0.00426602
0.00448372
0.00454443
0.00455559
0.00455675
0.00455956
0.00456041
0.00456011
0.000210236
0.0011057
0.00261384
0.00378141
0.00432501
0.00450363
0.00455061
0.00455756
0.00455652
0.0045591
0.00456105
0.00456138
0.000176311
0.000175419
0.000174486
0.000173249
0.000172337
0.00017143
0.00016797
0.000164995
0.000157055
0.000142567
0.000116568
4.34713e-05
0.00137965
0.00138036
0.001385
0.0013855
0.00138205
0.00137792
0.00137156
0.00132184
0.0011629
0.000861219
0.000403504
7.11639e-05
0.00302747
0.00302629
0.00302696
0.00302678
0.00302489
0.0030165
0.0029733
0.00279321
0.00231763
0.00156308
0.000705428
9.12759e-05
0.00406153
0.00406029
0.00405955
0.00405883
0.00405718
0.00404702
0.00398733
0.00373533
0.00305778
0.00199504
0.000882082
0.000103057
0.00442215
0.00442177
0.00442124
0.0044204
0.00441893
0.00441042
0.00435714
0.00411659
0.00341251
0.00223258
0.000975172
0.000110558
0.00451841
0.00451792
0.00451798
0.00451816
0.00451775
0.00451122
0.00446909
0.00426442
0.00360831
0.00240615
0.00106327
0.000121421
0.00454209
0.00454222
0.00454231
0.00454254
0.00454272
0.00453842
0.00450637
0.00433904
0.0037498
0.0025657
0.00115866
0.000132033
0.00455057
0.0045502
0.00455003
0.00455045
0.00455057
0.00454744
0.00452393
0.00438888
0.00386706
0.00271818
0.00126603
0.000144052
0.00455686
0.00455502
0.00455449
0.00455477
0.00455487
0.00455266
0.00453475
0.00442716
0.00397245
0.00287192
0.00137156
0.000160819
0.00455956
0.00455719
0.00455627
0.00455635
0.00455741
0.00455667
0.00454366
0.00445931
0.0040702
0.00303104
0.00150164
0.000183509
0.00456134
0.00456138
0.00456008
0.00455927
0.00456041
0.00456106
0.0045511
0.00448656
0.00416676
0.00321345
0.00166323
0.000212619
0.00456284
0.00456466
0.00456385
0.0045627
0.00456411
0.00456482
0.00455743
0.00451245
0.00427207
0.00345334
0.001918
0.00026049
7.49025e-05
0.000151874
0.000166233
0.000173365
0.000176666
0.000178671
0.000178583
0.000177413
0.000173683
0.000171992
0.000174935
0.000176872
8.29116e-05
0.000548148
0.000927089
0.00115591
0.00127819
0.00133631
0.00136691
0.00138461
0.00139672
0.00139367
0.00138507
0.00138335
9.48418e-05
0.000749099
0.00152362
0.00220992
0.00266419
0.00289212
0.00298819
0.00302592
0.0030417
0.00304333
0.00303853
0.00303511
0.000107048
0.000844014
0.00182895
0.00281427
0.0035078
0.00385831
0.00399907
0.00404929
0.00406617
0.00406959
0.00406807
0.00406602
0.000116085
0.000903616
0.00199092
0.00309061
0.00385066
0.00421874
0.00435923
0.0044056
0.00441996
0.00442368
0.00442426
0.00442377
0.000124001
0.000963882
0.00210923
0.00324566
0.00399666
0.00434153
0.00446618
0.00450557
0.0045161
0.00451867
0.00451922
0.00451897
0.000135347
0.00102147
0.00221437
0.00336118
0.00408189
0.00439461
0.00450282
0.00453518
0.00454328
0.00454434
0.00454395
0.00454411
0.000146051
0.00108214
0.00231336
0.00345779
0.00414369
0.00442636
0.00451977
0.00454659
0.00455184
0.00455153
0.00455118
0.00455051
0.000158267
0.00111878
0.00239211
0.00353549
0.00419152
0.00444947
0.00453044
0.00455181
0.00455624
0.00455587
0.00455471
0.00455292
0.000172476
0.00112346
0.00244225
0.00359513
0.0042304
0.00446775
0.00453851
0.00455655
0.00455989
0.0045582
0.00455693
0.004557
0.000178564
0.00106267
0.00247019
0.00365573
0.00426974
0.00448475
0.00454479
0.00455822
0.0045599
0.00455775
0.004559
0.00456106
0.000210259
0.00111203
0.0026207
0.00378755
0.00432835
0.00450516
0.00455214
0.0045609
0.0045605
0.00455836
0.004559
0.00456178
0.000173267
0.000173435
0.000172641
0.000170593
0.000174646
0.00017305
0.000168187
0.00016544
0.000156904
0.000143291
0.000117092
4.52529e-05
0.00139059
0.00139265
0.00139131
0.00138723
0.00138341
0.00137816
0.00137138
0.00132212
0.00116513
0.000867417
0.000410833
7.15393e-05
0.00303562
0.00303495
0.00303308
0.00303039
0.00302692
0.00301662
0.0029726
0.00279328
0.00231916
0.00156266
0.000700262
9.13799e-05
0.00406476
0.00406378
0.00406257
0.00406121
0.00405904
0.00404828
0.00398811
0.00373631
0.0030604
0.00200128
0.00089313
0.000104278
0.00442325
0.00442258
0.00442191
0.00442115
0.00442007
0.00441173
0.00435838
0.00411743
0.00341513
0.00223728
0.000981589
0.000114643
0.00451889
0.00451868
0.00451835
0.00451812
0.0045176
0.00451196
0.00447
0.00426523
0.00360843
0.00240745
0.00106438
0.000125893
0.00454421
0.00454345
0.0045426
0.00454209
0.00454228
0.00453865
0.00450766
0.00433984
0.00374946
0.00256579
0.00115472
0.000132986
0.0045502
0.00454954
0.00454867
0.00454805
0.0045482
0.00454675
0.00452418
0.00438935
0.00386754
0.00271981
0.00126777
0.000143965
0.0045541
0.00455402
0.00455288
0.00455308
0.00455297
0.00455165
0.00453483
0.00442763
0.00397392
0.0028753
0.00137267
0.000161192
0.00455729
0.0045566
0.00455687
0.00455803
0.00455794
0.00455634
0.00454322
0.00445899
0.00407273
0.00303549
0.00150327
0.00018307
0.0045587
0.00455877
0.00456143
0.00456274
0.00456133
0.00455916
0.00454914
0.00448529
0.0041681
0.00321771
0.00166408
0.000211903
0.00456123
0.0045628
0.00456553
0.00456436
0.00456289
0.0045616
0.00455447
0.0045104
0.00427253
0.00345593
0.00191715
0.000260303
4.65713e-05
0.000128876
0.000151409
0.000164898
0.000170538
0.000172888
0.000170805
0.000170703
0.000173457
0.000176308
0.000175725
0.000173737
7.86691e-05
0.00054124
0.000885143
0.00109595
0.00122227
0.00129123
0.00133514
0.00135526
0.00136252
0.00136934
0.00137889
0.00138221
9.07529e-05
0.000726032
0.00149639
0.00217482
0.00262856
0.00286333
0.00296805
0.0030087
0.00302227
0.00302665
0.00302949
0.0030296
0.000105304
0.000832107
0.00181358
0.00279815
0.00349339
0.00384752
0.00399135
0.00404284
0.00405927
0.00406301
0.00406316
0.00406248
0.000114332
0.000888656
0.00197574
0.00307906
0.00384298
0.00421456
0.00435661
0.00440377
0.00441774
0.00442112
0.00442162
0.00442164
0.000126802
0.000956915
0.0020987
0.00323662
0.00399151
0.0043388
0.00446451
0.0045034
0.004514
0.00451658
0.00451778
0.0045183
0.000135666
0.00102211
0.00220626
0.00335309
0.004077
0.00439216
0.00450046
0.0045323
0.00454012
0.00454198
0.00454318
0.00454357
0.00014824
0.00108035
0.00230147
0.00344849
0.00413917
0.00442461
0.00451835
0.00454309
0.00454783
0.00455088
0.00455309
0.00455283
0.000164155
0.00111266
0.00237502
0.00352448
0.00418748
0.00444864
0.00453052
0.00455016
0.00455263
0.00455447
0.00455601
0.00455709
0.000173152
0.00110619
0.00242332
0.0035853
0.00422709
0.00446738
0.00453939
0.00455511
0.00455569
0.00455689
0.00455915
0.0045601
0.00017828
0.00106096
0.00246094
0.00364994
0.00426759
0.00448536
0.00454736
0.00455957
0.00455935
0.00455896
0.00455771
0.0045582
0.000209686
0.00110243
0.00261359
0.003783
0.00432781
0.00450656
0.00455411
0.00456066
0.00456019
0.00456054
0.00456089
0.00456169
0.000172358
0.000175542
0.000175744
0.000173496
0.000172879
0.000172407
0.000169
0.000164942
0.000156968
0.000142639
0.00011661
4.38119e-05
0.00137908
0.00137877
0.00138674
0.001388
0.00138307
0.0013783
0.00137191
0.00132191
0.00116324
0.000862326
0.000404965
7.11227e-05
0.00302718
0.00302561
0.0030281
0.00302842
0.00302469
0.00301516
0.00297225
0.00279286
0.00231795
0.00156356
0.000705041
9.11354e-05
0.00406111
0.00406032
0.00406036
0.00405971
0.00405734
0.00404647
0.00398666
0.00373542
0.00305921
0.00199924
0.000888673
0.000104198
0.00442148
0.0044212
0.00442062
0.00441977
0.00441841
0.00441001
0.00435701
0.00411703
0.00341445
0.00223636
0.000982798
0.000114925
0.00451792
0.00451756
0.00451785
0.00451808
0.00451732
0.00451081
0.00446898
0.00426497
0.00360809
0.00240714
0.00106561
0.000124805
0.00454359
0.00454275
0.00454226
0.00454277
0.00454315
0.00453867
0.00450629
0.00433908
0.00374894
0.00256284
0.00115402
0.000132009
0.00455252
0.00455064
0.00455005
0.00455035
0.0045507
0.00454783
0.00452358
0.00438893
0.00386722
0.00271699
0.00126357
0.000143253
0.00455741
0.00455437
0.00455302
0.00455321
0.00455375
0.0045526
0.00453495
0.00442752
0.00397471
0.00287225
0.00136817
0.000159695
0.00455966
0.00455884
0.00455757
0.00455559
0.00455555
0.00455578
0.00454373
0.00446003
0.00407423
0.00303637
0.00150102
0.000183461
0.00455881
0.00455841
0.00456011
0.00456034
0.00456053
0.00456067
0.00455126
0.00448767
0.00417019
0.00321919
0.0016629
0.000212657
0.00456166
0.004562
0.00456284
0.00456254
0.00456243
0.00456293
0.00455674
0.00451291
0.0042733
0.00345613
0.00191548
0.000260376
4.66436e-05
0.000128384
0.00015144
0.000162743
0.000166473
0.0001668
0.000170835
0.000172813
0.000169511
0.000171908
0.000174934
0.000174596
8.13856e-05
0.000543325
0.000887671
0.00109943
0.00122731
0.00129411
0.00133229
0.00134687
0.00135928
0.00137153
0.00137977
0.0013814
9.05662e-05
0.000728341
0.00149844
0.00217718
0.00263163
0.00286582
0.00296763
0.00300526
0.00301972
0.00302637
0.00302933
0.0030293
0.00010434
0.000837565
0.00181796
0.00280068
0.00349486
0.00384831
0.00399148
0.00404228
0.00405869
0.00406338
0.00406373
0.00406275
0.000114099
0.000893832
0.00198026
0.0030813
0.00384408
0.00421488
0.00435678
0.00440374
0.00441815
0.00442186
0.00442251
0.0044223
0.000126982
0.000960724
0.00210154
0.00323835
0.00399215
0.00433955
0.00446523
0.00450483
0.00451553
0.00451769
0.00451834
0.00451859
0.000140173
0.00102691
0.00220948
0.00335449
0.00407811
0.00439332
0.00450226
0.00453443
0.00454258
0.00454291
0.00454216
0.0045434
0.000153472
0.00108738
0.00230529
0.00345
0.00413996
0.0044253
0.00451955
0.00454589
0.0045514
0.00455072
0.00454999
0.00455033
0.000166159
0.00111457
0.00237631
0.00352465
0.00418743
0.00444858
0.00453079
0.00455266
0.00455622
0.00455515
0.00455572
0.00455669
0.00017079
0.00110379
0.00242038
0.00358303
0.00422587
0.00446639
0.00453852
0.00455678
0.00456067
0.00456047
0.00456047
0.00455997
0.000176514
0.00105461
0.00245352
0.00364562
0.00426551
0.00448358
0.00454496
0.0045584
0.00456002
0.00456241
0.00456432
0.00456421
0.000208114
0.00109631
0.00260614
0.00377914
0.00432512
0.00450364
0.00455172
0.00456111
0.00456224
0.00456267
0.00456086
0.00456172
0.00017408
0.000172324
0.000172048
0.000174007
0.000171402
0.000173441
0.000174957
0.000168551
0.000157288
0.000142824
0.000117036
4.39598e-05
0.00138485
0.00138366
0.00137959
0.00137653
0.00137999
0.00138186
0.00137291
0.00131919
0.00116292
0.00086356
0.00040767
7.08291e-05
0.00303002
0.00302995
0.0030283
0.00302533
0.00302403
0.00301702
0.00297316
0.00279274
0.00231915
0.00156389
0.000703165
9.07738e-05
0.00406289
0.00406316
0.00406225
0.00406038
0.00405799
0.00404764
0.00398773
0.00373625
0.0030606
0.00200122
0.000890873
0.000103604
0.00442233
0.0044223
0.00442199
0.00442113
0.00441981
0.00441143
0.00435804
0.00411743
0.00341586
0.00223931
0.000984006
0.000114798
0.00451856
0.00451887
0.00451889
0.00451849
0.00451776
0.00451196
0.00446976
0.00426578
0.00361048
0.00241201
0.00106989
0.000126366
0.00454404
0.0045446
0.00454509
0.00454514
0.00454445
0.00453961
0.00450813
0.0043405
0.00375172
0.00257178
0.00116643
0.000132555
0.00455063
0.00455216
0.00455179
0.00455117
0.00455157
0.00454871
0.00452483
0.00438988
0.00386768
0.00272177
0.00127117
0.000144317
0.00455577
0.00455671
0.00455667
0.00455584
0.00455602
0.0045541
0.00453615
0.0044279
0.00397281
0.00287515
0.00137555
0.000162053
0.00455668
0.0045565
0.00455648
0.00455601
0.00455733
0.00455717
0.00454448
0.00445967
0.00407107
0.00303126
0.00150083
0.000182388
0.00456141
0.00455922
0.00455942
0.00455948
0.00455989
0.00455949
0.00455016
0.00448641
0.00416774
0.00321586
0.00166005
0.0002106
0.00456301
0.00456416
0.00456525
0.00456347
0.00456231
0.00456225
0.00455575
0.00451175
0.00427259
0.00345354
0.00191463
0.000259003
0.00118705
0.00214533
0.00325933
0.00405846
0.0044131
0.004528
0.00455799
0.00456042
0.0045588
0.00456326
0.0045648
0.00456389
0.00249344
0.00317323
0.00386719
0.00430451
0.00448909
0.00454825
0.00456328
0.00456241
0.00456087
0.00456645
0.00456735
0.00456314
0.00358731
0.00391926
0.00425702
0.00445513
0.00453629
0.00456108
0.00456632
0.00456617
0.00456507
0.00456887
0.00456691
0.00455801
0.0042
0.00431935
0.0044523
0.00452924
0.00455934
0.00456821
0.00456663
0.00456737
0.00456865
0.00456506
0.00455411
0.0045237
0.00456386
0.00456364
0.00456251
0.00456215
0.0045647
0.00456642
0.00456241
0.00453706
0.00439534
0.00384059
0.00260231
0.000997545
0.0045636
0.00456547
0.00456427
0.00456397
0.00456508
0.00456722
0.00456653
0.00455412
0.00448721
0.0042023
0.00344397
0.00229326
0.00456152
0.00456715
0.00456727
0.0045667
0.00456643
0.00456814
0.00456829
0.00456345
0.00453708
0.00442013
0.00406954
0.00345708
0.0045202
0.00455064
0.00456325
0.00456795
0.00457113
0.00457107
0.00456983
0.00456853
0.00455959
0.00451888
0.00438847
0.00414885
0.0011879
0.00215008
0.00326519
0.00406269
0.00441531
0.00452926
0.00455964
0.00456233
0.00456124
0.00456217
0.00456241
0.00456375
0.00249423
0.00317734
0.00387156
0.0043066
0.00449049
0.00454982
0.00456577
0.00456804
0.0045679
0.00456793
0.00456444
0.00456521
0.00358724
0.00392185
0.00425953
0.00445592
0.00453715
0.00456293
0.00456863
0.00456879
0.00456865
0.00456956
0.00456534
0.00456359
0.00420051
0.0043215
0.00445351
0.00452917
0.00456055
0.00457036
0.00457211
0.00457352
0.00457343
0.00457101
0.00455628
0.00452352
0.0045635
0.00456463
0.0045664
0.00456658
0.00456695
0.00456537
0.00456034
0.00453482
0.00439456
0.00384225
0.00260392
0.00100096
0.00456719
0.00456689
0.00456618
0.00456669
0.00456867
0.00456859
0.00456528
0.00455236
0.00448582
0.00420278
0.00344853
0.00230331
0.00456432
0.00456791
0.00457086
0.00457008
0.0045696
0.00456948
0.00456938
0.00456381
0.00453619
0.00441865
0.00407207
0.00346802
0.00452027
0.00455175
0.00456989
0.00457188
0.00457074
0.00457137
0.00457256
0.00457093
0.00455998
0.0045171
0.0043886
0.00415458
0.00118864
0.00214481
0.00325895
0.00405866
0.00441527
0.0045307
0.00456093
0.00456416
0.00456449
0.00456294
0.00456213
0.00456524
0.00250284
0.00317649
0.00386797
0.00430378
0.0044906
0.00455158
0.00456618
0.00456586
0.00456515
0.00456564
0.00456663
0.00456483
0.00359662
0.00392346
0.00425816
0.00445377
0.00453675
0.00456468
0.00456938
0.00456728
0.00456495
0.00456468
0.00456395
0.0045573
0.00420514
0.00432258
0.0044525
0.00452774
0.00456012
0.00457035
0.00456985
0.00456939
0.00456888
0.00456816
0.00455513
0.0045208
0.0045627
0.00456256
0.00456424
0.00456398
0.00456377
0.00456355
0.00456018
0.00453633
0.00439536
0.0038421
0.00260508
0.00100822
0.00456206
0.00456642
0.00456951
0.00456851
0.00456663
0.00456487
0.00456323
0.00455238
0.00448653
0.00420265
0.00344785
0.0023084
0.0045557
0.00456527
0.00456757
0.00456695
0.00456848
0.00456838
0.00456793
0.00456284
0.00453582
0.00441869
0.00407117
0.00346848
0.00451616
0.00454997
0.00456444
0.00456681
0.00457002
0.00457209
0.00457158
0.00456966
0.00455925
0.00451729
0.00438824
0.00415358
0.00117914
0.00213659
0.00325432
0.00405618
0.00441318
0.00452855
0.00455944
0.00456318
0.00456244
0.00456341
0.00456349
0.00456632
0.0025007
0.0031717
0.00386527
0.00430283
0.00448947
0.00455015
0.00456514
0.00456391
0.00456194
0.00456696
0.00456867
0.00456835
0.00359524
0.00392173
0.00425637
0.00445426
0.00453717
0.00456315
0.00456647
0.00456629
0.00456502
0.00456849
0.0045684
0.00456098
0.00420412
0.00432212
0.00445212
0.00452913
0.00456176
0.00457081
0.0045685
0.0045659
0.00456799
0.00456953
0.00455765
0.00452514
0.00456744
0.00456574
0.00456489
0.00456498
0.00456458
0.00456481
0.0045613
0.00453666
0.0043958
0.00384027
0.0025975
0.000984093
0.00456551
0.00456623
0.0045685
0.00456717
0.00456578
0.00456591
0.0045647
0.00455349
0.00448771
0.00420295
0.00344326
0.00228669
0.00455716
0.00456354
0.00456666
0.00456738
0.00456779
0.00456609
0.00456651
0.00456246
0.00453685
0.00442027
0.0040698
0.00345572
0.00451671
0.00454585
0.00456214
0.0045649
0.00456759
0.00456903
0.00457059
0.00456864
0.00455909
0.00451831
0.00438935
0.00414928
0.00444948
0.00449151
0.00453606
0.00456141
0.00457101
0.00457355
0.00457301
0.00457304
0.00457214
0.00455997
0.0044956
0.00434789
0.00453747
0.00455112
0.00456521
0.00457295
0.00457585
0.00457659
0.00457633
0.00457587
0.0045699
0.00452102
0.00428594
0.00382849
0.00456601
0.00457079
0.00457521
0.00457753
0.00457834
0.00457858
0.00457846
0.00457693
0.00455834
0.00441542
0.0038105
0.00286138
0.00457527
0.00457751
0.00457901
0.00457987
0.00458006
0.00458009
0.00457996
0.00457635
0.00453507
0.00423591
0.00313062
0.00156115
0.00433187
0.00447419
0.00454797
0.00456896
0.00457379
0.0045746
0.00457424
0.00457419
0.0045713
0.00455658
0.00451054
0.00443323
0.00379429
0.00424883
0.00449301
0.00456059
0.0045744
0.00457681
0.00457705
0.00457727
0.00457641
0.00457156
0.00455693
0.00453409
0.00281526
0.00378851
0.00437555
0.00454089
0.00457309
0.00457828
0.00457889
0.00457916
0.00457896
0.00457741
0.00457305
0.0045664
0.00149047
0.00312465
0.00420145
0.00451196
0.00457028
0.00457923
0.00458033
0.00458058
0.00458058
0.00458002
0.00457877
0.00457666
0.00444985
0.00449253
0.00453638
0.00456124
0.00457121
0.00457424
0.00457465
0.00457474
0.00457322
0.00456099
0.0044953
0.00434666
0.00453763
0.00455147
0.00456528
0.00457281
0.00457571
0.00457666
0.00457682
0.00457636
0.00457006
0.00452101
0.00428441
0.00382337
0.00456607
0.00457096
0.00457522
0.00457743
0.00457817
0.00457849
0.00457852
0.00457702
0.00455816
0.00441489
0.00380673
0.00285133
0.00457529
0.00457764
0.00457916
0.00457972
0.00457984
0.00457998
0.00457986
0.00457626
0.00453472
0.00423507
0.00312623
0.00154315
0.00433364
0.00447555
0.00455008
0.00457043
0.00457428
0.00457503
0.00457545
0.00457468
0.00457077
0.00455542
0.00451045
0.00443541
0.00380084
0.00425083
0.00449383
0.00456121
0.00457494
0.00457708
0.00457749
0.00457733
0.00457602
0.00457114
0.0045569
0.00453487
0.00283338
0.00379306
0.00437631
0.00454113
0.0045733
0.00457824
0.00457903
0.00457923
0.00457878
0.00457736
0.0045731
0.00456673
0.00152038
0.00313095
0.00420225
0.00451212
0.00457039
0.00457918
0.0045804
0.00458065
0.00458047
0.00458013
0.00457888
0.00457685
0.00445155
0.00449274
0.0045357
0.00456048
0.00457114
0.00457421
0.00457423
0.00457399
0.00457229
0.00456037
0.00449542
0.00434697
0.00453806
0.00455139
0.00456471
0.00457236
0.00457585
0.00457673
0.0045768
0.00457633
0.00457007
0.00452114
0.00428607
0.00382892
0.00456608
0.00457075
0.00457482
0.00457707
0.00457833
0.00457858
0.00457856
0.00457705
0.00455836
0.00441543
0.00381084
0.00286206
0.00457522
0.00457745
0.00457884
0.00457948
0.00457997
0.00458002
0.00457987
0.00457632
0.004535
0.00423576
0.00313033
0.00156138
0.0043304
0.00447425
0.00454859
0.00456888
0.00457356
0.00457445
0.00457442
0.00457423
0.0045708
0.00455566
0.00451001
0.00443459
0.00379303
0.00424886
0.00449331
0.00456065
0.00457429
0.00457649
0.00457688
0.00457708
0.00457612
0.00457118
0.00455656
0.00453443
0.00281375
0.00378833
0.00437579
0.00454094
0.00457309
0.00457813
0.00457879
0.00457899
0.00457878
0.00457728
0.00457289
0.00456652
0.00148943
0.00312429
0.00420176
0.00451205
0.00457032
0.0045792
0.00458032
0.00458056
0.00458049
0.00458003
0.00457873
0.00457672
0.00445101
0.00449274
0.00453586
0.00456125
0.00457181
0.00457443
0.00457363
0.00457284
0.00457213
0.00456076
0.00449604
0.00434723
0.0045379
0.00455158
0.00456512
0.00457274
0.00457607
0.00457683
0.00457661
0.00457599
0.00456998
0.00452122
0.00428575
0.00382647
0.00456609
0.00457106
0.00457516
0.00457722
0.00457834
0.00457863
0.00457851
0.00457693
0.00455834
0.00441561
0.00380964
0.00285935
0.00457525
0.00457775
0.00457907
0.00457946
0.00457991
0.00458009
0.00457991
0.00457627
0.00453504
0.00423637
0.00313156
0.00155491
0.00433228
0.00447293
0.00454742
0.00456807
0.00457282
0.00457371
0.00457415
0.00457347
0.00457075
0.00455648
0.00451103
0.00443346
0.00380421
0.00425102
0.00449311
0.00456036
0.00457415
0.00457642
0.00457694
0.00457686
0.00457608
0.0045716
0.00455711
0.00453422
0.00283989
0.00379527
0.00437656
0.0045409
0.00457307
0.00457809
0.00457885
0.00457899
0.00457868
0.00457742
0.00457314
0.00456658
0.00152551
0.00313404
0.00420298
0.00451213
0.00457035
0.00457921
0.0045804
0.00458058
0.00458037
0.00458008
0.00457889
0.00457683
0.00457875
0.00458037
0.00458107
0.0045814
0.0045814
0.00458141
0.00458118
0.00457527
0.00451012
0.00406026
0.00243459
0.000341036
0.00458058
0.0045821
0.00458264
0.00458284
0.00458275
0.00458262
0.00458233
0.00457538
0.00450043
0.00399898
0.00229856
0.000278525
0.00458192
0.00458339
0.00458384
0.00458398
0.00458389
0.00458373
0.00458341
0.00457664
0.00450289
0.0040042
0.00230236
0.000272354
0.00458281
0.00458413
0.0045844
0.00458443
0.00458432
0.00458423
0.00458399
0.00457803
0.00451066
0.00403784
0.0023565
0.00028012
0.00458055
0.00458136
0.00458144
0.00458131
0.00458122
0.00458125
0.00458106
0.00457603
0.00451639
0.00407716
0.00242587
0.000291086
0.00455635
0.00455436
0.00455377
0.00455351
0.00455346
0.00455353
0.00455338
0.00454926
0.00449739
0.00409479
0.00248874
0.000302292
0.00443605
0.00442718
0.00442494
0.00442427
0.00442412
0.00442416
0.00442418
0.00442105
0.0043773
0.00401981
0.00250952
0.000312157
0.00404764
0.00402886
0.00402406
0.00402244
0.00402213
0.00402203
0.00402257
0.00402069
0.00398739
0.00370072
0.00241082
0.000316231
0.00323507
0.00321458
0.00320864
0.00320633
0.003206
0.00320575
0.0032071
0.00320664
0.00318698
0.00300236
0.00209445
0.00030851
0.00217737
0.00217071
0.00216603
0.00216484
0.00216447
0.00216442
0.0021667
0.00216696
0.00215962
0.00207209
0.00157782
0.000283336
0.0010313
0.00102386
0.00102129
0.00101943
0.00102066
0.00101984
0.00102282
0.00102287
0.00102269
0.000996193
0.000820556
0.000232547
0.000105754
0.000105036
0.00010475
0.00010449
0.000104332
0.00010404
0.000103972
0.000103788
0.000103617
0.000101978
9.03956e-05
5.02176e-05
0.000335603
0.00246974
0.00403188
0.00448491
0.00456785
0.00458008
0.00458163
0.00458185
0.00458194
0.00458165
0.00458121
0.00458032
0.000279931
0.00231792
0.00396687
0.00447393
0.00456749
0.00458112
0.00458284
0.004583
0.00458306
0.00458276
0.00458259
0.00458211
0.000276688
0.00231054
0.00396752
0.00447623
0.004569
0.00458229
0.00458395
0.00458405
0.00458398
0.00458379
0.00458376
0.0045834
0.000284407
0.00235483
0.00399792
0.00448504
0.00457117
0.00458312
0.00458459
0.00458471
0.00458461
0.00458452
0.00458449
0.00458415
0.000294584
0.00241622
0.00403572
0.00449262
0.00457003
0.00458031
0.00458154
0.00458172
0.00458164
0.00458163
0.00458149
0.00458117
0.000304981
0.00247444
0.00405423
0.00447616
0.0045445
0.00455323
0.00455428
0.0045545
0.0045545
0.00455446
0.00455423
0.00455405
0.000314768
0.00249459
0.00398393
0.00436007
0.0044188
0.00442625
0.00442733
0.0044276
0.00442765
0.00442748
0.00442706
0.00442752
0.000318604
0.00239935
0.00367452
0.00397684
0.00402306
0.00402935
0.0040307
0.00403117
0.00403115
0.0040307
0.00402994
0.00403091
0.000311168
0.00208615
0.00298722
0.00318404
0.00321414
0.0032189
0.00322047
0.00322113
0.00322087
0.00322013
0.00321906
0.00321962
0.000285703
0.00156655
0.00206354
0.00216104
0.00217642
0.00217957
0.00218026
0.00218051
0.00217925
0.0021797
0.0021788
0.00217665
0.00023436
0.00081815
0.000993522
0.00102505
0.00103067
0.00103192
0.00103193
0.00103138
0.00102971
0.00103031
0.00103059
0.00102702
5.02096e-05
9.03713e-05
0.00010181
0.000103589
0.000103813
0.000103975
0.00010407
0.00010435
0.000104299
0.000104847
0.000105094
0.000104773
0.00457875
0.00458042
0.00458113
0.00458125
0.00458122
0.00458135
0.00458105
0.00457509
0.00450981
0.00406021
0.00243396
0.000336832
0.00458052
0.00458204
0.00458254
0.00458255
0.00458245
0.00458254
0.00458219
0.00457522
0.00450026
0.00399909
0.00229647
0.000276738
0.0045818
0.00458325
0.0045836
0.00458365
0.00458356
0.00458361
0.00458331
0.00457652
0.00450285
0.00400463
0.00230225
0.000273599
0.00458266
0.00458389
0.00458406
0.00458408
0.00458408
0.00458415
0.0045839
0.00457791
0.00451068
0.00403849
0.00235784
0.000282134
0.00458039
0.00458109
0.00458112
0.00458117
0.00458121
0.00458126
0.00458099
0.00457591
0.0045164
0.00407792
0.00242797
0.000293283
0.00455616
0.00455407
0.00455356
0.00455341
0.00455337
0.00455341
0.0045532
0.00454906
0.00449731
0.00409548
0.00249102
0.000304265
0.00443565
0.00442665
0.0044245
0.00442391
0.00442361
0.00442367
0.00442364
0.00442058
0.00437694
0.00402015
0.00251152
0.00031446
0.00404679
0.00402785
0.00402318
0.00402177
0.00402095
0.00402109
0.00402139
0.00401981
0.00398647
0.00370042
0.00241185
0.000317366
0.00323361
0.00321313
0.00320764
0.00320568
0.00320448
0.00320482
0.00320539
0.00320567
0.00318565
0.0030015
0.00209454
0.000308436
0.00217737
0.00217061
0.00216703
0.00216438
0.0021641
0.00216428
0.00216521
0.00216686
0.0021584
0.00207134
0.00157687
0.000282738
0.00103193
0.00102486
0.00102192
0.00101985
0.00101993
0.00102062
0.00102106
0.00102351
0.00102169
0.000995887
0.000818346
0.000231455
0.000105309
0.000104768
0.000104458
0.000104138
0.0001039
0.000103797
0.000103679
0.000103749
0.000103619
0.000102092
9.05252e-05
5.0507e-05
0.000337257
0.00246958
0.00403188
0.00448493
0.0045679
0.00458002
0.00458164
0.00458186
0.00458173
0.00458174
0.00458141
0.00458051
0.000279023
0.00231697
0.00396643
0.00447386
0.00456751
0.00458106
0.0045828
0.00458297
0.00458284
0.00458303
0.00458298
0.00458232
0.000273473
0.00230891
0.00396687
0.00447611
0.004569
0.00458228
0.00458389
0.00458404
0.00458402
0.00458417
0.00458414
0.00458361
0.000281483
0.00235322
0.00399724
0.00448491
0.00457115
0.00458318
0.00458458
0.00458466
0.00458464
0.00458477
0.00458475
0.00458433
0.000291469
0.00241458
0.00403505
0.0044925
0.00456998
0.0045804
0.00458157
0.00458157
0.0045816
0.00458164
0.00458156
0.00458131
0.00030289
0.00247295
0.00405367
0.00447605
0.00454446
0.00455335
0.00455436
0.00455433
0.00455447
0.00455452
0.00455429
0.00455414
0.000312349
0.00249324
0.00398361
0.00436013
0.00441888
0.00442647
0.00442746
0.00442755
0.00442772
0.00442756
0.00442716
0.00442775
0.000317572
0.00239852
0.00367491
0.00397739
0.00402349
0.0040298
0.00403108
0.00403144
0.00403149
0.00403114
0.00403046
0.00403152
0.000310192
0.00208629
0.00298874
0.00318534
0.00321496
0.00321957
0.00322108
0.00322164
0.00322138
0.00322077
0.00321986
0.00322051
0.000286016
0.0015685
0.00206663
0.00216305
0.00217747
0.00218007
0.00218093
0.00218072
0.00217955
0.00217969
0.0021791
0.00217727
0.000235314
0.000821905
0.000997046
0.00102692
0.00103148
0.00103208
0.00103262
0.0010314
0.00102993
0.00102954
0.00103028
0.00102746
5.00402e-05
9.02582e-05
0.000101817
0.000103606
0.000104056
0.000104217
0.000104477
0.000104663
0.000104767
0.000104806
0.000105326
0.000105378
0.00457871
0.00458033
0.00458097
0.00458106
0.00458128
0.00458134
0.00458108
0.00457521
0.00451001
0.00405983
0.0024332
0.000340712
0.00458053
0.00458202
0.00458243
0.00458233
0.00458248
0.00458259
0.00458227
0.00457538
0.00450036
0.00399854
0.00229748
0.000278519
0.00458188
0.00458331
0.00458362
0.0045835
0.0045836
0.00458372
0.0045834
0.00457668
0.00450285
0.00400379
0.00230127
0.000272523
0.00458275
0.00458404
0.00458426
0.00458421
0.00458419
0.00458425
0.00458402
0.0045781
0.00451065
0.00403746
0.00235532
0.000280374
0.00458047
0.00458125
0.00458135
0.00458126
0.00458117
0.00458127
0.00458111
0.0045761
0.00451638
0.00407683
0.00242477
0.000291358
0.00455626
0.00455426
0.0045538
0.00455358
0.00455345
0.00455352
0.00455342
0.0045493
0.00449738
0.00409451
0.00248774
0.000302549
0.00443596
0.00442706
0.00442497
0.00442435
0.00442408
0.00442412
0.0044242
0.00442108
0.0043773
0.00401961
0.0025088
0.000312397
0.00404746
0.00402876
0.00402412
0.00402274
0.00402216
0.00402209
0.00402256
0.00402078
0.00398744
0.00370072
0.00241037
0.000316409
0.00323456
0.00321443
0.00320864
0.00320685
0.00320617
0.00320602
0.00320705
0.00320685
0.00318713
0.0030027
0.00209449
0.000308588
0.00217785
0.00217048
0.00216677
0.00216655
0.00216548
0.0021655
0.00216698
0.00216764
0.00215991
0.00207283
0.00157818
0.000283392
0.0010324
0.00102427
0.00102092
0.00102189
0.00102121
0.0010209
0.00102289
0.00102376
0.001023
0.000997187
0.00082118
0.000232622
0.000105715
0.00010509
0.000104757
0.000104611
0.00010444
0.000104133
0.000103958
0.000103823
0.00010366
0.000102077
9.05061e-05
5.03105e-05
0.000335786
0.00246983
0.00403239
0.00448501
0.00456787
0.00458008
0.00458161
0.00458195
0.00458185
0.00458172
0.00458125
0.00458038
0.000279809
0.00231796
0.00396733
0.00447399
0.0045675
0.0045811