/*--------------------------------*- C++ -*----------------------------------*\
  =========                 |
  \\      /  F ield         | OpenFOAM: The Open Source CFD Toolbox
   \\    /   O peration     | Website:  https://openfoam.org
    \\  /    A nd           | Version:  6
     \\/     M anipulation  |
\*---------------------------------------------------------------------------*/
FoamFile
{
    version     2.0;
    format      ascii;
    class       surfaceScalarField;
    location    "2000";
    object      phi;
}
// * * * * * * * * * * * * * * * * * * * * * * * * * * * * * * * * * * * * * //

dimensions      [0 3 -1 0 0 0 0];

internalField   nonuniform List<scalar> 
5952
(
-9.66958e-07
9.95759e-07
-2.11431e-06
9.19773e-07
-2.66203e-06
5.90006e-07
-3.91988e-06
9.18814e-07
-4.76821e-06
8.98126e-07
-5.90825e-06
7.23484e-07
-6.35428e-06
5.08785e-07
-7.10086e-06
3.22313e-07
-7.23104e-06
2.1023e-07
-7.68379e-06
1.1089e-07
-7.55351e-06
5.2936e-08
-1.07018e-08
-7.76282e-06
-4.67241e-06
5.63578e-06
-5.86675e-06
2.06625e-06
-6.11673e-06
8.25872e-07
-5.68696e-06
4.38651e-07
-5.07512e-06
2.69092e-07
-4.54821e-06
1.40306e-07
-4.1029e-06
4.33305e-08
-3.81717e-06
-2.6202e-08
-3.55621e-06
-6.01887e-08
-3.41128e-06
-7.44651e-08
-3.27956e-06
-6.69404e-08
-5.66235e-08
-3.25095e-06
-1.23147e-06
6.82032e-06
-1.74413e-06
2.54442e-06
-1.48515e-06
5.55134e-07
-1.07014e-06
2.79701e-09
-6.32379e-07
-1.80472e-07
-2.56953e-07
-2.56358e-07
5.9306e-08
-2.84051e-07
2.95909e-07
-2.8295e-07
4.86559e-07
-2.57323e-07
6.15765e-07
-2.15368e-07
7.11247e-07
-1.6024e-07
-1.00085e-07
7.51936e-07
-1.84811e-06
8.59087e-06
-5.93852e-07
1.2503e-06
1.38778e-07
-1.92728e-07
6.65475e-07
-5.42404e-07
1.10287e-06
-6.29361e-07
1.46321e-06
-6.33757e-07
1.76593e-06
-5.97151e-07
2.00277e-06
-5.35122e-07
2.19196e-06
-4.52659e-07
2.32447e-06
-3.57608e-07
2.41633e-06
-2.5296e-07
-1.44466e-07
2.4576e-06
-1.13e-06
9.53869e-06
-4.0746e-08
9.54924e-08
8.58119e-07
-1.11961e-06
1.50295e-06
-1.2127e-06
2.00749e-06
-1.15169e-06
2.41175e-06
-1.06047e-06
2.74288e-06
-9.43663e-07
3.00206e-06
-8.13563e-07
3.2041e-06
-6.65437e-07
3.34616e-06
-5.13727e-07
3.44121e-06
-3.52351e-07
-1.94966e-07
3.48324e-06
-1.57543e-06
1.08691e-05
2.15314e-07
-1.78731e-06
1.3632e-06
-2.32747e-06
2.15376e-06
-2.03671e-06
2.74107e-06
-1.78056e-06
3.20904e-06
-1.55361e-06
3.57136e-06
-1.34226e-06
3.85983e-06
-1.12001e-06
4.06829e-06
-9.03636e-07
4.22393e-06
-6.78221e-07
4.31376e-06
-4.6471e-07
-2.44353e-07
4.36338e-06
-1.62428e-06
1.18445e-05
5.07853e-07
-4.07686e-06
1.91068e-06
-3.79374e-06
2.84063e-06
-3.02702e-06
3.52741e-06
-2.50534e-06
4.03969e-06
-2.11584e-06
4.44031e-06
-1.77135e-06
4.73173e-06
-1.45314e-06
4.95477e-06
-1.14409e-06
5.09833e-06
-8.5403e-07
5.19712e-06
-5.70368e-07
-3.01508e-07
5.23331e-06
-1.64505e-06
1.33087e-05
8.63633e-07
-6.6812e-06
2.55506e-06
-5.54098e-06
3.65381e-06
-4.17272e-06
4.42134e-06
-3.31371e-06
4.97527e-06
-2.70742e-06
5.38081e-06
-2.21139e-06
5.67371e-06
-1.77475e-06
5.88107e-06
-1.37767e-06
6.01957e-06
-1.01288e-06
6.10364e-06
-6.72055e-07
-3.48954e-07
6.14048e-06
-1.9789e-06
1.47355e-05
1.30605e-06
-1.00638e-05
3.37122e-06
-7.65275e-06
4.63687e-06
-5.47458e-06
5.46133e-06
-4.17137e-06
6.0202e-06
-3.29813e-06
6.40606e-06
-2.62566e-06
6.67241e-06
-2.06694e-06
6.85309e-06
-1.58114e-06
6.97015e-06
-1.14996e-06
7.03855e-06
-7.56858e-07
-3.90667e-07
7.06784e-06
-8.44153e-07
1.56591e-05
2.35644e-06
-1.32735e-05
4.56264e-06
-9.88116e-06
5.87612e-06
-6.80473e-06
6.67317e-06
-4.99073e-06
7.17727e-06
-3.82055e-06
7.50183e-06
-2.97071e-06
7.71558e-06
-2.29709e-06
7.85271e-06
-1.73617e-06
7.93854e-06
-1.25034e-06
7.98532e-06
-8.18508e-07
-4.19904e-07
8.00553e-06
2.64729e-06
1.31071e-05
4.74282e-06
-1.5332e-05
6.42933e-06
-1.15632e-05
7.47017e-06
-7.85289e-06
8.07388e-06
-5.60646e-06
8.43028e-06
-4.19066e-06
8.64689e-06
-3.20143e-06
8.78079e-06
-2.44506e-06
8.86203e-06
-1.83148e-06
8.90785e-06
-1.31075e-06
8.93041e-06
-8.5412e-07
-4.37952e-07
8.93878e-06
1.07668e-05
2.47438e-06
9.40661e-06
-1.38852e-05
9.25501e-06
-1.13741e-05
9.45236e-06
-8.03992e-06
9.62647e-06
-5.77611e-06
9.73812e-06
-4.30501e-06
9.80649e-06
-3.27238e-06
9.84423e-06
-2.48874e-06
9.86218e-06
-1.85591e-06
9.86513e-06
-1.32361e-06
9.86128e-06
-8.59183e-07
9.85696e-06
-4.40701e-07
-7.50037e-06
-4.25514e-08
-7.5195e-06
-8.46646e-08
-7.14972e-06
-1.11106e-07
-6.98929e-06
-1.69212e-07
-6.50056e-06
-2.51071e-07
-6.07043e-06
-3.79242e-07
-5.35789e-06
-5.23538e-07
-4.59864e-06
-6.4321e-07
-3.99701e-06
-4.75979e-07
-3.3809e-06
-5.27015e-07
-1.45861e-06
-1.78414e-06
-1.42123e-06
-3.22774e-06
-3.8837e-08
-3.2824e-06
-2.41699e-08
-3.34352e-06
-1.09599e-08
-3.47901e-06
-1.15573e-08
-3.66309e-06
-2.7945e-08
-3.94865e-06
-6.74757e-08
-4.3091e-06
-1.29497e-07
-4.69044e-06
-2.31389e-07
-4.71368e-06
-4.24225e-07
-4.21899e-06
-9.9105e-07
-3.32615e-06
-2.61825e-06
-4.73987e-06
7.58621e-07
-3.64547e-08
7.15592e-07
2.49403e-08
6.36994e-07
8.20977e-08
5.08304e-07
1.2897e-07
3.34565e-07
1.62496e-07
1.05219e-07
1.76253e-07
-1.71237e-07
1.62598e-07
-4.83494e-07
9.55353e-08
-8.00997e-07
-9.48613e-08
-1.14958e-06
-6.26471e-07
-1.56769e-06
-2.1944e-06
-6.32392e-06
2.4595e-06
-3.43672e-08
2.41317e-06
7.392e-08
2.32549e-06
1.78027e-07
2.18824e-06
2.74176e-07
2.00337e-06
3.58524e-07
1.76568e-06
4.24825e-07
1.47595e-06
4.63917e-07
1.12686e-06
4.53542e-07
7.01339e-07
3.38478e-07
1.27058e-07
-5.87419e-08
-5.65366e-07
-1.53134e-06
-6.85633e-06
3.48271e-06
-3.21524e-08
3.43097e-06
1.23865e-07
3.33383e-06
2.82188e-07
3.18176e-06
4.32353e-07
2.97388e-06
5.78151e-07
2.70069e-06
7.09826e-07
2.3533e-06
8.22732e-07
1.91236e-06
9.0395e-07
1.32858e-06
9.26364e-07
4.73982e-07
7.95639e-07
-7.60701e-07
-2.27885e-07
-7.58982e-06
4.35384e-06
-3.57847e-08
4.30522e-06
1.80912e-07
4.19671e-06
3.90463e-07
4.03758e-06
6.07793e-07
3.80748e-06
8.21095e-07
3.50115e-06
1.03645e-06
3.09659e-06
1.2453e-06
2.56573e-06
1.45354e-06
1.8444e-06
1.67805e-06
7.62343e-07
1.92411e-06
-9.91499e-07
1.55349e-06
-8.41826e-06
5.23331e-06
-3.2229e-08
5.17583e-06
2.3193e-07
5.07546e-06
5.05809e-07
4.90932e-06
7.84403e-07
4.67659e-06
1.07936e-06
4.35015e-06
1.38496e-06
3.9126e-06
1.71244e-06
3.32732e-06
2.07478e-06
2.50714e-06
2.51722e-06
1.27685e-06
3.17889e-06
-6.59032e-07
3.67193e-06
-9.07225e-06
6.13504e-06
-3.393e-08
6.08733e-06
2.82342e-07
5.99112e-06
6.07814e-07
5.84021e-06
9.53114e-07
5.61412e-06
1.32255e-06
5.29675e-06
1.72862e-06
4.85278e-06
2.17841e-06
4.23669e-06
2.70685e-06
3.37831e-06
3.41226e-06
2.09306e-06
4.50102e-06
1.55937e-07
5.58834e-06
-8.74089e-06
7.06372e-06
-3.55176e-08
7.02423e-06
3.21086e-07
6.94612e-06
6.93901e-07
6.81655e-06
1.09421e-06
6.62113e-06
1.53538e-06
6.33247e-06
2.03276e-06
5.91848e-06
2.60962e-06
5.33109e-06
3.31668e-06
4.46954e-06
4.26576e-06
3.18155e-06
5.79088e-06
1.31114e-06
7.58571e-06
-7.55989e-06
8.0026e-06
-3.77432e-08
7.9762e-06
3.4878e-07
7.9209e-06
7.56612e-07
7.825e-06
1.19981e-06
7.67486e-06
1.69853e-06
7.44406e-06
2.27278e-06
7.1004e-06
2.96095e-06
6.58386e-06
3.82987e-06
5.82267e-06
5.04512e-06
4.664e-06
6.94652e-06
3.1496e-06
8.99791e-06
-4.41329e-06
8.93858e-06
-4.21859e-08
8.92741e-06
3.61436e-07
8.89854e-06
7.9082e-07
8.84429e-06
1.26271e-06
8.75142e-06
1.79803e-06
8.60307e-06
2.42515e-06
8.37155e-06
3.19319e-06
8.01515e-06
4.18842e-06
7.46068e-06
5.57385e-06
6.68772e-06
7.70298e-06
5.47045e-06
1.01896e-05
8.23603e-07
9.86077e-06
-4.82559e-08
9.86567e-06
3.58931e-07
9.865e-06
7.95985e-07
9.85403e-06
1.27952e-06
9.82547e-06
1.82783e-06
9.77486e-06
2.47408e-06
9.69223e-06
3.2674e-06
9.5613e-06
4.30418e-06
9.36349e-06
5.76681e-06
9.08009e-06
7.94657e-06
8.37133e-06
1.07644e-05
9.22504e-06
-9.10813e-06
4.36798e-06
-8.85934e-06
-6.31691e-07
-8.07055e-06
-5.42437e-07
-8.44002e-06
2.13368e-08
-8.48123e-06
2.51802e-07
-9.01145e-06
2.00357e-07
-8.91959e-06
1.05908e-07
-9.20596e-06
-1.06557e-08
-8.93945e-06
-6.82321e-08
-9.07619e-06
-1.16772e-07
-8.7471e-06
-1.29297e-07
-1.61357e-07
-8.79218e-06
-1.61753e-06
5.82194e-06
-4.00553e-06
1.63659e-06
-4.91826e-06
3.73973e-07
-5.01527e-06
6.20513e-08
-4.69677e-06
-5.85898e-08
-4.38741e-06
-1.5507e-07
-4.05125e-06
-2.20048e-07
-3.83723e-06
-2.63098e-07
-3.61567e-06
-2.76082e-07
-3.4909e-06
-2.70507e-07
-3.35838e-06
-2.44549e-07
-2.17657e-07
-3.32106e-06
-1.66923e-06
7.4529e-06
-1.5958e-06
1.52418e-06
-1.29566e-06
7.31267e-08
-9.49623e-07
-3.01079e-07
-5.78293e-07
-4.28403e-07
-2.59909e-07
-4.86474e-07
2.66257e-08
-5.03527e-07
2.4635e-07
-4.931e-07
4.32359e-07
-4.57471e-07
5.59874e-07
-4.0526e-07
6.60524e-07
-3.38883e-07
-2.67742e-07
7.07064e-07
-1.55706e-06
8.90901e-06
-5.07015e-07
4.44224e-07
1.86729e-07
-6.2267e-07
6.87184e-07
-8.10325e-07
1.10418e-06
-8.38678e-07
1.44649e-06
-8.33517e-07
1.73988e-06
-7.87816e-07
1.97172e-06
-7.28014e-07
2.16067e-06
-6.36429e-07
2.29433e-06
-5.40817e-07
2.39033e-06
-4.24171e-07
-3.13195e-07
2.43507e-06
-9.70598e-07
9.77753e-06
4.34529e-08
-6.20644e-07
8.71881e-07
-1.48681e-06
1.50146e-06
-1.43453e-06
1.97933e-06
-1.3449e-06
2.39429e-06
-1.226e-06
2.70847e-06
-1.12374e-06
2.9851e-06
-9.7685e-07
3.17401e-06
-8.43995e-07
3.33601e-06
-6.73301e-07
3.41948e-06
-5.24166e-07
-3.45255e-07
3.48158e-06
-1.41565e-06
1.05252e-05
2.41153e-07
-2.43519e-06
1.3595e-06
-2.65074e-06
2.10805e-06
-2.25653e-06
2.72069e-06
-1.94495e-06
3.16103e-06
-1.72482e-06
3.55618e-06
-1.49314e-06
3.82038e-06
-1.28857e-06
4.0634e-06
-1.05385e-06
4.1964e-06
-8.451e-07
4.32093e-06
-6.10896e-07
-4.03139e-07
4.34878e-06
-1.46965e-06
1.17847e-05
4.78092e-07
-4.51948e-06
1.86328e-06
-4.09191e-06
2.80158e-06
-3.23943e-06
3.47831e-06
-2.68645e-06
4.00843e-06
-2.27707e-06
4.40186e-06
-1.933e-06
4.71274e-06
-1.6073e-06
4.92976e-06
-1.3027e-06
5.09451e-06
-1.00552e-06
5.18882e-06
-7.24212e-07
-4.4508e-07
5.24322e-06
-1.98361e-06
1.321e-05
7.79545e-07
-7.3391e-06
2.48519e-06
-5.89458e-06
3.60221e-06
-4.40224e-06
4.37704e-06
-3.50075e-06
4.93813e-06
-2.87626e-06
5.34881e-06
-2.37291e-06
5.64948e-06
-1.93133e-06
5.86358e-06
-1.53249e-06
6.01285e-06
-1.16419e-06
6.10601e-06
-8.19634e-07
-4.90023e-07
6.1511e-06
-1.757e-06
1.50964e-05
1.27425e-06
-1.04463e-05
3.33211e-06
-7.93718e-06
4.59235e-06
-5.70242e-06
5.42203e-06
-4.36453e-06
5.98597e-06
-3.47291e-06
6.37761e-06
-2.79085e-06
6.65002e-06
-2.22514e-06
6.83904e-06
-1.73558e-06
6.9672e-06
-1.29883e-06
7.04692e-06
-9.00545e-07
-5.25081e-07
7.0861e-06
-9.35542e-07
1.59577e-05
2.31505e-06
-1.36448e-05
4.50738e-06
-1.01981e-05
5.83535e-06
-7.0368e-06
6.63959e-06
-5.19001e-06
7.148e-06
-4.00333e-06
7.47833e-06
-3.14076e-06
7.6966e-06
-2.45976e-06
7.84343e-06
-1.89073e-06
7.94013e-06
-1.39903e-06
8.00092e-06
-9.57767e-07
-5.48557e-07
8.0316e-06
2.69647e-06
1.3561e-05
4.69321e-06
-1.56362e-05
6.39544e-06
-1.18279e-05
7.43678e-06
-8.09269e-06
8.04629e-06
-5.81803e-06
8.4084e-06
-4.38348e-06
8.62863e-06
-3.38142e-06
8.76817e-06
-2.61436e-06
8.85758e-06
-1.99158e-06
8.91651e-06
-1.46153e-06
8.95347e-06
-9.93533e-07
-5.62966e-07
8.97433e-06
1.08447e-05
2.7502e-06
9.4039e-06
-1.40986e-05
9.22011e-06
-1.16768e-05
9.42665e-06
-8.28503e-06
9.60722e-06
-5.99562e-06
9.7236e-06
-4.50769e-06
9.79533e-06
-3.46221e-06
9.83804e-06
-2.6661e-06
9.86414e-06
-2.02302e-06
9.88104e-06
-1.47869e-06
9.89318e-06
-1.00025e-06
9.90311e-06
-5.63438e-07
-8.41877e-06
-1.7367e-07
-8.38902e-06
-1.95179e-07
-8.00429e-06
-1.95524e-07
-7.90903e-06
-2.37579e-07
-7.44669e-06
-3.04563e-07
-7.15051e-06
-4.12983e-07
-6.52074e-06
-5.28071e-07
-5.92488e-06
-6.20203e-07
-5.3908e-06
-4.61547e-07
-4.57668e-06
-7.58722e-07
-2.19517e-06
-2.27812e-06
-2.16294e-06
-3.28705e-06
-1.86899e-07
-3.33183e-06
-1.61421e-07
-3.37022e-06
-1.35864e-07
-3.4905e-06
-1.2517e-07
-3.64605e-06
-1.33217e-07
-3.90122e-06
-1.6503e-07
-4.1996e-06
-2.22271e-07
-4.48763e-06
-3.32741e-07
-4.3663e-06
-5.71548e-07
-3.8238e-06
-1.27665e-06
-2.81476e-06
-3.23158e-06
-4.96657e-06
7.22397e-07
-1.94166e-07
6.84254e-07
-1.23779e-07
6.15237e-07
-5.75003e-08
4.92906e-07
-2.40869e-09
3.29589e-07
3.82111e-08
1.07395e-07
5.71238e-08
-1.55841e-07
4.48068e-08
-4.56712e-07
-3.13108e-08
-7.67668e-07
-2.54948e-07
-1.16055e-06
-8.64448e-07
-1.85242e-06
-2.52427e-06
-6.81345e-06
2.4428e-06
-1.90323e-07
2.39993e-06
-7.915e-08
2.31806e-06
3.60693e-08
2.18434e-06
1.3538e-07
2.00513e-06
2.28344e-07
1.77022e-06
2.95996e-07
1.48687e-06
3.38457e-07
1.14237e-06
3.17874e-07
7.27504e-07
1.7222e-07
1.84969e-07
-3.16841e-07
-3.00479e-07
-2.02903e-06
-7.03955e-06
3.47043e-06
-1.91516e-07
3.43533e-06
-1.57422e-08
3.3306e-06
1.3648e-07
3.19104e-06
3.01994e-07
2.97753e-06
4.44126e-07
2.71416e-06
5.86746e-07
2.36247e-06
6.95049e-07
1.92587e-06
7.73656e-07
1.34129e-06
7.66652e-07
4.89782e-07
5.47146e-07
-7.05105e-07
-6.96684e-07
-7.69264e-06
4.36801e-06
-1.73176e-07
4.3008e-06
3.50173e-08
4.21389e-06
2.6231e-07
4.04171e-06
4.74736e-07
3.8262e-06
7.01239e-07
3.51138e-06
9.13665e-07
3.11272e-06
1.12964e-06
2.57385e-06
1.32972e-06
1.84121e-06
1.53194e-06
7.53776e-07
1.72903e-06
-1.03166e-06
1.13194e-06
-8.39563e-06
5.23709e-06
-1.74626e-07
5.19194e-06
1.01113e-07
5.08657e-06
3.7751e-07
4.92854e-06
6.6714e-07
4.69191e-06
9.64194e-07
4.37006e-06
1.27834e-06
3.92543e-06
1.60453e-06
3.3332e-06
1.96904e-06
2.51027e-06
2.40923e-06
1.22145e-06
3.02305e-06
-7.99912e-07
3.55601e-06
-9.14281e-06
6.1511e-06
-1.66804e-07
6.10559e-06
1.57462e-07
6.01373e-06
4.94034e-07
5.86087e-06
8.45949e-07
5.6385e-06
1.22572e-06
5.31604e-06
1.63442e-06
4.87273e-06
2.0918e-06
4.25293e-06
2.62148e-06
3.3725e-06
3.31749e-06
2.11458e-06
4.42525e-06
2.0413e-07
5.43087e-06
-8.51634e-06
7.0871e-06
-1.60206e-07
7.05243e-06
2.0883e-07
6.97449e-06
5.93369e-07
6.8462e-06
1.00468e-06
6.64811e-06
1.45537e-06
6.35897e-06
1.95903e-06
5.94111e-06
2.54144e-06
5.34604e-06
3.25157e-06
4.49428e-06
4.21045e-06
3.17127e-06
5.69298e-06
1.4057e-06
7.55328e-06
-7.28121e-06
8.03568e-06
-1.52793e-07
8.01353e-06
2.49104e-07
7.9575e-06
6.70275e-07
7.86181e-06
1.12811e-06
7.70669e-06
1.63522e-06
7.47486e-06
2.21972e-06
7.1257e-06
2.91313e-06
6.60683e-06
3.78777e-06
5.82014e-06
4.99571e-06
4.68365e-06
6.92937e-06
3.10266e-06
8.92463e-06
-4.12889e-06
8.98224e-06
-1.49382e-07
8.97395e-06
2.73094e-07
8.945e-06
7.19353e-07
8.88709e-06
1.20656e-06
8.79047e-06
1.75299e-06
8.63723e-06
2.39059e-06
8.39959e-06
3.16473e-06
8.03173e-06
4.1671e-06
7.47521e-06
5.56445e-06
6.64023e-06
7.66813e-06
5.40617e-06
1.0206e-05
1.12665e-06
9.91553e-06
-1.481e-07
9.9223e-06
2.806e-07
9.9208e-06
7.38437e-07
9.90398e-06
1.23675e-06
9.87087e-06
1.79969e-06
9.81229e-06
2.45509e-06
9.72296e-06
3.25907e-06
9.5815e-06
4.30156e-06
9.35465e-06
5.76525e-06
9.04983e-06
7.9679e-06
8.30393e-06
1.08111e-05
9.34734e-06
-1.01777e-06
1.05173e-06
-2.2006e-06
9.57655e-07
-2.77133e-06
6.16937e-07
-4.06649e-06
9.59494e-07
-4.94142e-06
9.29953e-07
-6.09832e-06
7.46695e-07
-6.57255e-06
5.38671e-07
-7.33082e-06
3.44326e-07
-7.45846e-06
2.10542e-07
-7.89638e-06
1.02328e-07
-7.76614e-06
5.4718e-08
1.50628e-09
-7.98382e-06
-4.67439e-06
5.69702e-06
-5.87977e-06
2.11634e-06
-6.1342e-06
8.58606e-07
-5.68923e-06
4.64462e-07
-5.06534e-06
2.90065e-07
-4.53249e-06
1.57688e-07
-4.0721e-06
5.91571e-08
-3.77886e-06
-1.17157e-08
-3.52853e-06
-4.81111e-08
-3.39911e-06
-6.72174e-08
-3.26775e-06
-6.34207e-08
-5.2129e-08
-3.23124e-06
-1.21899e-06
6.87285e-06
-1.74871e-06
2.61309e-06
-1.49198e-06
5.91145e-07
-1.0749e-06
2.71037e-08
-6.34934e-07
-1.611e-07
-2.58272e-07
-2.39801e-07
5.95869e-08
-2.69332e-07
2.97778e-07
-2.69716e-07
4.89509e-07
-2.458e-07
6.17211e-07
-2.06246e-07
7.09783e-07
-1.53298e-07
-9.41987e-08
7.49432e-07
-1.82402e-06
8.62587e-06
-5.87457e-07
1.33881e-06
1.38839e-07
-1.49202e-07
6.63129e-07
-5.14964e-07
1.09985e-06
-6.08664e-07
1.46003e-06
-6.16544e-07
1.76303e-06
-5.82191e-07
2.00031e-06
-5.21921e-07
2.18995e-06
-4.41128e-07
2.32212e-06
-3.47802e-07
2.4132e-06
-2.44828e-07
-1.37775e-07
2.45398e-06
-1.07511e-06
9.53404e-06
-2.79184e-08
2.2957e-07
8.58432e-07
-1.0618e-06
1.4992e-06
-1.18025e-06
2.00258e-06
-1.12884e-06
2.40647e-06
-1.04226e-06
2.73778e-06
-9.28093e-07
2.99717e-06
-8.00092e-07
3.1995e-06
-6.53549e-07
3.34146e-06
-5.03486e-07
3.43635e-06
-3.43515e-07
-1.8771e-07
3.47805e-06
-1.56046e-06
1.08735e-05
2.03627e-07
-1.62105e-06
1.35207e-06
-2.26787e-06
2.144e-06
-2.00361e-06
2.73196e-06
-1.75727e-06
3.20077e-06
-1.53473e-06
3.5635e-06
-1.32635e-06
3.85273e-06
-1.10604e-06
4.06141e-06
-8.91536e-07
4.21741e-06
-6.67377e-07
4.30693e-06
-4.55352e-07
-2.36224e-07
4.35644e-06
-1.77426e-06
1.20516e-05
4.65572e-07
-4.01072e-06
1.88855e-06
-3.75048e-06
2.82458e-06
-2.99812e-06
3.51444e-06
-2.48301e-06
4.02821e-06
-2.09721e-06
4.4302e-06
-1.75512e-06
4.72234e-06
-1.43906e-06
4.94624e-06
-1.13157e-06
5.08993e-06
-8.42877e-07
5.18883e-06
-5.60227e-07
-2.92614e-07
5.22448e-06
-1.68372e-06
1.35665e-05
8.2869e-07
-6.6134e-06
2.5306e-06
-5.50555e-06
3.63496e-06
-4.14733e-06
4.40568e-06
-3.29299e-06
4.96176e-06
-2.68935e-06
5.36883e-06
-2.19544e-06
5.66291e-06
-1.76065e-06
5.87103e-06
-1.36506e-06
6.00988e-06
-1.00139e-06
6.09395e-06
-6.61405e-07
-3.39204e-07
6.13039e-06
-1.97461e-06
1.50299e-05
1.29006e-06
-9.96872e-06
3.35168e-06
-7.61129e-06
4.61837e-06
-5.44861e-06
5.44472e-06
-4.15113e-06
6.00547e-06
-3.28064e-06
6.393e-06
-2.61019e-06
6.66069e-06
-2.05315e-06
6.8423e-06
-1.56869e-06
6.95987e-06
-1.13842e-06
7.02833e-06
-7.45856e-07
-3.80135e-07
7.05722e-06
-8.00931e-07
1.59099e-05
2.35738e-06
-1.31339e-05
4.54859e-06
-9.82334e-06
5.85886e-06
-6.77457e-06
6.6563e-06
-4.96985e-06
7.16193e-06
-3.80357e-06
7.48826e-06
-2.95599e-06
7.70351e-06
-2.28393e-06
7.84167e-06
-1.7241e-06
7.92802e-06
-1.23882e-06
7.97471e-06
-8.07153e-07
-4.08476e-07
7.99442e-06
2.64787e-06
1.33586e-05
4.73381e-06
-1.51846e-05
6.41284e-06
-1.14981e-05
7.45162e-06
-7.82026e-06
8.05614e-06
-5.58563e-06
8.41434e-06
-4.17462e-06
8.63294e-06
-3.18776e-06
8.76853e-06
-2.43279e-06
8.85097e-06
-1.81996e-06
8.89735e-06
-1.2994e-06
8.91993e-06
-8.42491e-07
-4.25738e-07
8.92791e-06
1.06898e-05
2.79862e-06
9.36622e-06
-1.37797e-05
9.22671e-06
-1.13229e-05
9.4289e-06
-8.01239e-06
9.6065e-06
-5.75853e-06
9.72116e-06
-4.29133e-06
9.79209e-06
-3.2606e-06
9.83192e-06
-2.47786e-06
9.8513e-06
-1.8453e-06
9.85494e-06
-1.31272e-06
9.85123e-06
-8.47443e-07
9.84656e-06
-4.27817e-07
-7.73316e-06
-3.08e-08
-7.75455e-06
-7.95454e-08
-7.3771e-06
-1.1804e-07
-7.20303e-06
-1.8059e-07
-6.71152e-06
-2.50982e-07
-6.29069e-06
-3.70191e-07
-5.58375e-06
-5.16224e-07
-4.83289e-06
-6.35055e-07
-4.23487e-06
-4.70819e-07
-3.57987e-06
-5.63158e-07
-1.57783e-06
-1.85721e-06
-1.53801e-06
-3.20126e-06
-3.24539e-08
-3.2559e-06
-1.84823e-08
-3.32507e-06
-8.4241e-09
-3.46929e-06
-1.35112e-08
-3.64885e-06
-3.10469e-08
-3.92228e-06
-6.99376e-08
-4.27041e-06
-1.33641e-07
-4.63559e-06
-2.3906e-07
-4.63629e-06
-4.4075e-07
-4.13684e-06
-1.02995e-06
-3.21773e-06
-2.7129e-06
-4.74563e-06
7.57783e-07
-3.11963e-08
7.16743e-07
2.90468e-08
6.39279e-07
8.41247e-08
5.09939e-07
1.28121e-07
3.36757e-07
1.59382e-07
1.10057e-07
1.71418e-07
-1.62911e-07
1.55257e-07
-4.71248e-07
8.4154e-08
-7.86426e-07
-1.13167e-07
-1.14341e-06
-6.55442e-07
-1.62123e-06
-2.22468e-06
-6.37905e-06
2.4562e-06
-2.90238e-08
2.41046e-06
7.77669e-08
2.32335e-06
1.79906e-07
2.18609e-06
2.73635e-07
2.00148e-06
3.55491e-07
1.76479e-06
4.19228e-07
1.47684e-06
4.54967e-07
1.13032e-06
4.3984e-07
7.08865e-07
3.1661e-07
1.46197e-07
-9.7282e-08
-4.92101e-07
-1.609e-06
-6.83948e-06
3.47749e-06
-2.63e-08
3.42567e-06
1.28003e-07
3.32858e-06
2.84488e-07
3.1762e-06
4.32266e-07
2.96821e-06
5.75696e-07
2.69495e-06
7.04289e-07
2.34818e-06
8.13673e-07
1.90833e-06
8.89124e-07
1.32839e-06
9.01413e-07
4.85779e-07
7.47017e-07
-7.1359e-07
-3.44607e-07
-7.52593e-06
4.34637e-06
-2.92855e-08
4.29754e-06
1.85978e-07
4.18833e-06
3.93536e-07
4.02883e-06
6.08961e-07
3.79763e-06
8.19619e-07
3.4909e-06
1.03244e-06
3.08496e-06
1.23722e-06
2.5535e-06
1.44007e-06
1.83155e-06
1.65272e-06
7.52405e-07
1.87e-06
-9.74856e-07
1.4114e-06
-8.35517e-06
5.22412e-06
-2.45995e-08
5.16581e-06
2.38061e-07
5.06487e-06
5.10501e-07
4.8974e-06
7.87195e-07
4.66371e-06
1.08029e-06
4.33518e-06
1.38323e-06
3.89535e-06
1.70773e-06
3.30516e-06
2.06518e-06
2.47757e-06
2.4996e-06
1.23018e-06
3.14205e-06
-7.95012e-07
3.60048e-06
-9.13918e-06
6.12432e-06
-2.51884e-08
6.07577e-06
2.89986e-07
5.97854e-06
6.1433e-07
5.82637e-06
9.58361e-07
5.59862e-06
1.32633e-06
5.27892e-06
1.73061e-06
4.83114e-06
2.17838e-06
4.20908e-06
2.70441e-06
3.33911e-06
3.40459e-06
2.03274e-06
4.48196e-06
7.00879e-08
5.55108e-06
-8.9201e-06
7.05232e-06
-2.54878e-08
7.01179e-06
3.30494e-07
6.93246e-06
7.02696e-07
6.8014e-06
1.10234e-06
6.60408e-06
1.54269e-06
6.31289e-06
2.03916e-06
5.89507e-06
2.61502e-06
5.30081e-06
3.32127e-06
4.42778e-06
4.2719e-06
3.10959e-06
5.80459e-06
1.07908e-06
7.68804e-06
-7.94839e-06
7.99063e-06
-2.63472e-08
7.96317e-06
3.60075e-07
7.90661e-06
7.67843e-07
7.8091e-06
1.21107e-06
7.65703e-06
1.70972e-06
7.42369e-06
2.28384e-06
7.0766e-06
2.97196e-06
6.55568e-06
3.84156e-06
5.78798e-06
5.05751e-06
4.62052e-06
6.96721e-06
3.11859e-06
9.10713e-06
-4.83186e-06
8.92696e-06
-2.94232e-08
8.91463e-06
3.74843e-07
8.88426e-06
8.04876e-07
8.8283e-06
1.27738e-06
8.73346e-06
1.81333e-06
8.58265e-06
2.44111e-06
8.34803e-06
3.21021e-06
7.98711e-06
4.20627e-06
7.42916e-06
5.59386e-06
6.66037e-06
7.72741e-06
5.49253e-06
1.02528e-05
4.82441e-07
9.84968e-06
-3.41441e-08
9.85345e-06
3.74463e-07
9.8513e-06
8.12835e-07
9.83868e-06
1.29762e-06
9.80801e-06
1.84728e-06
9.75495e-06
2.49527e-06
9.66874e-06
3.29075e-06
9.53354e-06
4.32998e-06
9.33127e-06
5.79465e-06
9.04908e-06
7.97329e-06
8.40208e-06
1.08022e-05
8.89608e-06
-1.04706e-06
1.06313e-06
-2.1354e-06
9.20713e-07
-2.65893e-06
5.81423e-07
-3.79526e-06
9.28428e-07
-4.61876e-06
9.09241e-07
-5.55746e-06
7.22882e-07
-5.94654e-06
4.99388e-07
-6.45817e-06
3.0908e-07
-6.50818e-06
1.77991e-07
-6.76062e-06
7.3369e-08
-6.63886e-06
1.7151e-08
-2.66027e-08
-6.76001e-06
-4.6734e-06
5.71472e-06
-5.88384e-06
2.09527e-06
-6.1458e-06
8.38421e-07
-5.69238e-06
4.48453e-07
-5.06135e-06
2.75952e-07
-4.50862e-06
1.44406e-07
-4.0514e-06
4.34087e-08
-3.7376e-06
-2.75566e-08
-3.48708e-06
-6.73884e-08
-3.34331e-06
-8.81295e-08
-3.22969e-06
-8.75453e-08
-7.63968e-08
-3.19153e-06
-1.17413e-06
6.87312e-06
-1.7321e-06
2.63764e-06
-1.48487e-06
5.8766e-07
-1.065e-06
1.80549e-08
-6.1916e-07
-1.72137e-07
-2.31692e-07
-2.52809e-07
9.5271e-08
-2.84308e-07
3.46361e-07
-2.8689e-07
5.4556e-07
-2.65481e-07
6.79988e-07
-2.28618e-07
7.73226e-07
-1.77796e-07
-1.1993e-07
8.13604e-07
-1.81819e-06
8.64383e-06
-5.91664e-07
1.3903e-06
1.33514e-07
-1.44527e-07
6.6476e-07
-5.20601e-07
1.10716e-06
-6.16205e-07
1.47735e-06
-6.28798e-07
1.78812e-06
-5.94468e-07
2.03587e-06
-5.3938e-07
2.23138e-06
-4.58616e-07
2.37006e-06
-3.70743e-07
2.46311e-06
-2.66768e-07
-1.64273e-07
2.50535e-06
-1.06817e-06
9.65811e-06
-3.46098e-08
3.2327e-07
8.46996e-07
-1.0468e-06
1.49822e-06
-1.17498e-06
1.99986e-06
-1.13712e-06
2.42133e-06
-1.04341e-06
2.75164e-06
-9.42169e-07
3.02995e-06
-8.05748e-07
3.22879e-06
-6.73383e-07
3.38759e-06
-5.14336e-07
3.47489e-06
-3.68448e-07
-2.01833e-07
3.53002e-06
-1.51365e-06
1.08769e-05
1.90366e-07
-1.46583e-06
1.3451e-06
-2.23241e-06
2.12657e-06
-1.9991e-06
2.73905e-06
-1.74796e-06
3.19747e-06
-1.54008e-06
3.58818e-06
-1.32116e-06
3.86538e-06
-1.11625e-06
4.10217e-06
-8.91186e-07
4.24337e-06
-6.83766e-07
4.35928e-06
-4.5997e-07
-2.55449e-07
4.39128e-06
-1.85846e-06
1.25982e-05
4.16834e-07
-3.83032e-06
1.86409e-06
-3.71514e-06
2.81816e-06
-2.98436e-06
3.50588e-06
-2.47705e-06
4.03759e-06
-2.08763e-06
4.43691e-06
-1.75094e-06
4.7474e-06
-1.43218e-06
4.96747e-06
-1.13229e-06
5.12952e-06
-8.41838e-07
5.22381e-06
-5.66051e-07
-2.94359e-07
5.27369e-06
-2.06466e-06
1.42637e-05
7.5968e-07
-6.70737e-06
2.49778e-06
-5.52037e-06
3.62225e-06
-4.14164e-06
4.40142e-06
-3.28367e-06
4.96549e-06
-2.67753e-06
5.37871e-06
-2.18362e-06
5.68031e-06
-1.74927e-06
5.89489e-06
-1.35667e-06
6.04253e-06
-9.95012e-07
6.1336e-06
-6.56938e-07
-3.34248e-07
6.17543e-06
-1.78483e-06
1.60348e-05
1.27933e-06
-9.83938e-06
3.34445e-06
-7.58538e-06
4.61159e-06
-5.44052e-06
5.44327e-06
-4.14129e-06
6.00909e-06
-3.26736e-06
6.40223e-06
-2.5957e-06
6.67569e-06
-2.03813e-06
6.86467e-06
-1.55555e-06
6.99115e-06
-1.12606e-06
7.06817e-06
-7.3434e-07
-3.66066e-07
7.10412e-06
-7.79482e-07
1.66826e-05
2.37172e-06
-1.29791e-05
4.54074e-06
-9.8092e-06
5.85616e-06
-6.76688e-06
6.65761e-06
-4.96141e-06
7.16615e-06
-3.79305e-06
7.49734e-06
-2.94202e-06
7.71684e-06
-2.2695e-06
7.86322e-06
-1.70863e-06
7.95864e-06
-1.22394e-06
8.0162e-06
-7.89833e-07
-3.87544e-07
8.04387e-06
2.67269e-06
1.41411e-05
4.7329e-06
-1.50538e-05
6.42006e-06
-1.14596e-05
7.45413e-06
-7.8169e-06
8.05963e-06
-5.58336e-06
8.42064e-06
-4.16903e-06
8.64204e-06
-3.17908e-06
8.78262e-06
-2.42159e-06
8.87221e-06
-1.80707e-06
8.92954e-06
-1.28419e-06
8.96348e-06
-8.23303e-07
-3.99615e-07
8.98093e-06
1.07314e-05
3.4076e-06
9.40136e-06
-1.36748e-05
9.23448e-06
-1.13216e-05
9.43569e-06
-8.01554e-06
9.61308e-06
-5.76313e-06
9.72937e-06
-4.29351e-06
9.80262e-06
-3.2598e-06
9.84695e-06
-2.47324e-06
9.87388e-06
-1.83769e-06
9.88923e-06
-1.3004e-06
9.8987e-06
-8.27968e-07
9.90468e-06
-3.98488e-07
-6.57242e-06
-4.45201e-08
-6.61668e-06
-7.67547e-08
-6.36689e-06
-1.11064e-07
-6.30715e-06
-1.68532e-07
-5.94999e-06
-2.41446e-07
-5.68381e-06
-3.58582e-07
-5.11876e-06
-4.91068e-07
-4.55095e-06
-5.88883e-07
-4.09808e-06
-3.9981e-07
-3.52552e-06
-5.33987e-07
-1.58539e-06
-1.87178e-06
-1.56307e-06
-3.16652e-06
-5.7063e-08
-3.21047e-06
-3.96224e-08
-3.28152e-06
-2.64986e-08
-3.42775e-06
-2.73931e-08
-3.61571e-06
-4.37721e-08
-3.89779e-06
-8.18007e-08
-4.24192e-06
-1.42168e-07
-4.58491e-06
-2.45205e-07
-4.52362e-06
-4.5319e-07
-3.97135e-06
-1.07032e-06
-2.98392e-06
-2.82045e-06
-4.54082e-06
8.18691e-07
-5.74193e-08
7.74714e-07
3.59813e-09
6.93969e-07
6.02952e-08
5.60119e-07
1.06421e-07
3.82117e-07
1.39875e-07
1.46931e-07
1.53644e-07
-1.31413e-07
1.39335e-07
-4.44313e-07
6.87891e-08
-7.60337e-07
-1.32144e-07
-1.132e-06
-6.82555e-07
-1.71917e-06
-2.22562e-06
-6.25776e-06
2.5065e-06
-5.27384e-08
2.45914e-06
5.11708e-08
2.36957e-06
1.56725e-07
2.22923e-06
2.49756e-07
2.04105e-06
3.3535e-07
1.79863e-06
3.9964e-07
1.50678e-06
4.40013e-07
1.1553e-06
4.25852e-07
7.3137e-07
3.032e-07
1.65859e-07
-1.13878e-07
-4.29971e-07
-1.62584e-06
-6.60168e-06
3.51901e-06
-5.23423e-08
3.47602e-06
1.12315e-07
3.36943e-06
2.60396e-07
3.2216e-06
4.16556e-07
3.0053e-06
5.55755e-07
2.7347e-06
6.92396e-07
2.38043e-06
8.0162e-07
1.93819e-06
8.84712e-07
1.34949e-06
9.03558e-07
4.83067e-07
7.63084e-07
-7.54063e-07
-2.3053e-07
-7.29394e-06
4.40126e-06
-3.59951e-08
4.33576e-06
1.68336e-07
4.23977e-06
3.86261e-07
4.06792e-06
5.95052e-07
3.84505e-06
8.14018e-07
3.53096e-06
1.02423e-06
3.1286e-06
1.23711e-06
2.59213e-06
1.44294e-06
1.86016e-06
1.66846e-06
7.78534e-07
1.95235e-06
-1.05962e-06
1.65783e-06
-7.96724e-06
5.26602e-06
-3.01476e-08
5.21594e-06
2.38282e-07
5.10825e-06
5.08586e-07
4.9459e-06
7.91432e-07
4.70806e-06
1.08301e-06
4.38478e-06
1.39174e-06
3.94233e-06
1.7144e-06
3.35612e-06
2.0793e-06
2.55309e-06
2.53346e-06
1.31602e-06
3.19349e-06
-4.26613e-07
3.86186e-06
-8.33864e-06
6.1726e-06
-1.77833e-08
6.12357e-06
2.99549e-07
6.02879e-06
6.29444e-07
5.8731e-06
9.74635e-07
5.64937e-06
1.34816e-06
5.32662e-06
1.75059e-06
4.88599e-06
2.20216e-06
4.27384e-06
2.72749e-06
3.40995e-06
3.42641e-06
2.19709e-06
4.56653e-06
3.40033e-07
5.67344e-06
-7.54689e-06
7.10207e-06
-7.98884e-09
7.06425e-06
3.53741e-07
6.98353e-06
7.31473e-07
6.85291e-06
1.13576e-06
6.65341e-06
1.57993e-06
6.36391e-06
2.07671e-06
5.94753e-06
2.65202e-06
5.35729e-06
3.35456e-06
4.52065e-06
4.30896e-06
3.23439e-06
5.789e-06
1.67788e-06
7.61443e-06
-6.06833e-06
8.04451e-06
6.8062e-10
8.01979e-06
3.9532e-07
7.96097e-06
8.09091e-07
7.86342e-06
1.26006e-06
7.70653e-06
1.76031e-06
7.47376e-06
2.33833e-06
7.1239e-06
3.02441e-06
6.60559e-06
3.89104e-06
5.81905e-06
5.09238e-06
4.68771e-06
7.03002e-06
3.0709e-06
8.99396e-06
-2.94802e-06
8.98564e-06
5.85583e-09
8.97476e-06
4.20342e-07
8.94361e-06
8.58632e-07
8.88386e-06
1.33872e-06
8.78557e-06
1.87836e-06
8.63062e-06
2.51001e-06
8.3907e-06
3.27775e-06
8.01895e-06
4.27406e-06
7.45559e-06
5.66937e-06
6.59432e-06
7.78268e-06
5.27282e-06
1.03659e-05
2.1551e-06
9.91404e-06
8.36039e-09
9.91809e-06
4.2775e-07
9.9149e-06
8.77097e-07
9.89638e-06
1.36771e-06
9.86203e-06
1.92416e-06
9.80164e-06
2.5741e-06
9.70976e-06
3.37337e-06
9.56284e-06
4.41242e-06
9.32363e-06
5.87887e-06
8.995e-06
8.10574e-06
8.17109e-06
1.10295e-05
1.02356e-05
1.72474e-05
-2.75333e-06
-1.19451e-05
1.42638e-05
-1.08231e-05
1.23427e-05
-9.41436e-06
1.1515e-05
-7.19426e-06
1.1176e-05
-5.42945e-06
1.10204e-05
-4.14745e-06
1.09357e-05
-3.18862e-06
1.088e-05
-2.43628e-06
1.08362e-05
-1.81835e-06
1.07985e-05
-1.29475e-06
1.07683e-05
-8.3796e-07
-4.30575e-07
1.07507e-05
1.97157e-05
-2.24048e-06
-2.01859e-05
1.63788e-05
-7.41197e-06
1.42517e-05
-7.24053e-06
1.31125e-05
-6.02385e-06
1.25189e-05
-4.81813e-06
1.21936e-05
-3.8089e-06
1.19979e-05
-2.98533e-06
1.18687e-05
-2.30182e-06
1.17739e-05
-1.72334e-06
1.17009e-05
-1.22439e-06
1.16455e-05
-7.88768e-07
-4.02107e-07
1.16131e-05
1.93239e-05
-1.5199e-06
-2.00011e-05
1.70645e-05
-5.09418e-06
1.53567e-05
-5.489e-06
1.42836e-05
-4.92164e-06
1.36359e-05
-4.15138e-06
1.32376e-05
-3.39805e-06
1.29802e-05
-2.71976e-06
1.28026e-05
-2.11965e-06
1.26706e-05
-1.59084e-06
1.25677e-05
-1.12562e-06
1.24889e-05
-7.14589e-07
-3.52161e-07
1.24365e-05
1.87948e-05
-1.92338e-05
-1.0471e-06
1.73395e-05
-3.5883e-06
1.60754e-05
-4.17982e-06
1.51748e-05
-3.98826e-06
1.45692e-05
-3.52006e-06
1.41627e-05
-2.97324e-06
1.38833e-05
-2.42522e-06
1.36808e-05
-1.90676e-06
1.35243e-05
-1.42816e-06
1.33972e-05
-9.96709e-07
1.32916e-05
-6.09238e-07
1.32059e-05
-2.71948e-07
1.07608e-05
-6.11981e-08
1.0782e-05
3.38079e-07
1.08086e-05
7.72682e-07
1.08375e-05
1.2522e-06
1.08706e-05
1.79358e-06
1.09146e-05
2.423e-06
1.09895e-05
3.18183e-06
1.11395e-05
4.14032e-06
1.14612e-05
5.41792e-06
1.21613e-05
7.20709e-06
1.35222e-05
9.38294e-06
1.11879e-05
1.15027e-05
1.16335e-05
-8.26889e-08
1.16718e-05
3.01129e-07
1.17222e-05
7.24138e-07