/*--------------------------------*- C++ -*----------------------------------*\
  =========                 |
  \\      /  F ield         | OpenFOAM: The Open Source CFD Toolbox
   \\    /   O peration     | Website:  https://openfoam.org
    \\  /    A nd           | Version:  6
     \\/     M anipulation  |
\*---------------------------------------------------------------------------*/
FoamFile
{
    version     2.0;
    format      ascii;
    class       volScalarField;
    location    "500";
    object      epsilon;
}
// * * * * * * * * * * * * * * * * * * * * * * * * * * * * * * * * * * * * * //

dimensions      [0 2 -3 0 0 0 0];

internalField   nonuniform List<scalar> 
768
(
576.063
314.621
314.621
314.621
314.621
314.621
314.621
314.621
314.621
314.621
314.621
314.621
515.543
140.993
66.8106
52.1503
49.28
48.7241
48.6491
48.6373
48.6402
48.632
48.6427
48.66
466.522
113.025
41.0767
26.4745
23.5779
23.0055
22.8909
22.8677
22.8696
22.8597
22.8497
22.8659
426.008
99.7541
35.6815
23.1753
20.7214
20.2495
20.1571
20.1415
20.138
20.1353
20.135
20.1374
391.966
89.6042
32.8682
22.2563
20.267
19.8945
19.8206
19.8114
19.8085
19.8086
19.8072
19.8091
362.959
81.1579
30.8083
21.7419
20.1125
19.812
19.7596
19.7491
19.7507
19.7479
19.7538
19.7506
337.948
74.02
29.1771
21.3252
20.007
19.771
19.7309
19.7222
19.7221
19.7244
19.7248
19.7257
316.16
67.9991
27.7541
21.0505
19.9373
19.7389
19.7099
19.7038
19.7001
19.7061
19.7105
19.7108
297.011
62.9198
26.6423
20.8338
19.8832
19.7207
19.6877
19.6877
19.6857
19.6884
19.6946
19.6942
280.049
58.8508
25.8904
20.6802
19.8412
19.7021
19.6744
19.6673
19.667
19.6672
19.6733
19.6715
264.918
55.9573
25.5954
20.5563
19.7977
19.6844
19.6557
19.6583
19.6646
19.6633
19.6576
19.6518
251.339
51.0513
24.5759
20.3358
19.7647
19.6672
19.6413
19.6451
19.6453
19.6391
19.6458
19.6501
314.621
314.621
314.621
314.621
314.621
314.621
314.621
314.621
314.621
314.621
314.621
576.063
48.6862
48.7178
48.7471
48.7744
48.7959
48.8108
48.8179
48.8127
48.7926
64.4058
141.469
515.543
22.8753
22.8885
22.8981
22.9066
22.9118
22.9108
22.9318
22.9386
22.9398
37.6709
112.415
466.522
20.1406
20.1425
20.1452
20.1475
20.1501
20.1517
20.1512
20.1534
20.1519
32.4603
98.7776
426.008
19.8078
19.81
19.8094
19.8124
19.8121
19.8133
19.8112
19.8131
19.8128
29.8922
88.3825
391.966
19.7514
19.7494
19.7513
19.7477
19.75
19.7514
19.7517
19.752
19.7533
28.0674
79.6726
362.959
19.7253
19.7294
19.7265
19.7235
19.7236
19.7256
19.7254
19.7311
19.7316
26.592
72.2484
337.948
19.7065
19.7074
19.7117
19.7085
19.7061
19.7106
19.7121
19.7126
19.7114
25.2613
66.1732
316.16
19.6879
19.685
19.6913
19.6963
19.6958
19.6932
19.6883
19.6925
19.6937
24.3501
60.1727
297.011
19.6662
19.672
19.6735
19.6705
19.6763
19.6823
19.6811
19.6804
19.6751
23.2761
55.6313
280.049
19.6496
19.6523
19.6598
19.6598
19.6573
19.6624
19.6657
19.6655
19.6603
22.7678
50.6663
264.918
19.6425
19.6447
19.6521
19.6538
19.6536
19.6452
19.6402
19.6459
19.6447
22.1716
44.4648
251.339
58.6206
29.0117
21.4138
19.9396
19.7021
19.6542
19.6319
19.6252
19.6312
19.6316
19.6326
19.632
26.0768
21.8561
20.1548
19.7362
19.6556
19.6309
19.6126
19.6123
19.6132
19.6212
19.6206
19.6209
20.8744
20.0903
19.7613
19.6529
19.6223
19.6155
19.6087
19.6094
19.6183
19.6124
19.6128
19.6082
19.8502
19.7059
19.6449
19.6268
19.6081
19.5952
19.5903
19.5902
19.6026
19.6106
19.6107
19.5988
19.6229
19.624
19.6266
19.6252
19.6276
19.6342
19.6422
19.645
19.6339
20.3477
27.1195
71.7963
19.6169
19.6211
19.6276
19.6206
19.6215
19.6291
19.6265
19.6155
19.6167
19.802
21.3918
29.1972
19.5981
19.6082
19.6085
19.6099
19.6078
19.6127
19.6205
19.6098
19.616
19.6551
20.0141
21.2596
19.5868
19.5874
19.5875
19.5878
19.5881
19.6004
19.601
19.6023
19.6019
19.6161
19.684
19.899
19.6459
19.6106
19.5986
19.5917
19.5887
19.5835
19.5818
19.5823
19.5831
19.5843
19.585
19.5816
19.5957
19.5824
19.5775
19.5764
19.577
19.5739
19.5742
19.5727
19.5725
19.5726
19.5719
19.5721
19.5786
19.5675
19.5653
19.5656
19.567
19.5645
19.5642
19.5636
19.5628
19.5628
19.5626
24.8813
19.5701
19.5572
19.555
19.5571
19.5584
19.5554
19.5552
19.5558
19.5555
19.5545
22.8265
51.2243
19.5801
19.5797
19.5792
19.5803
19.5799
19.5817
19.5818
19.5839
19.5828
19.5863
19.6011
19.6418
19.5711
19.5703
19.5696
19.5712
19.5717
19.5708
19.5691
19.5706
19.5722
19.5699
19.5748
19.5843
25.6522
20.2512
19.6225
19.5667
19.5625
19.5627
19.5616
19.5603
19.5618
19.561
19.5633
19.5677
51.846
23.1573
19.8622
19.5768
19.5554
19.5541
19.5546
19.5538
19.554
19.553
19.5552
19.5568
19.561
19.5497
19.5485
19.549
19.5492
19.5478
19.5481
19.548
19.5478
20.0115
30.42
171.989
19.5535
19.5429
19.5413
19.5422
19.5425
19.5419
19.5414
19.5419
19.5413
20.1074
30.9705
166.16
19.5466
19.5359
19.5356
19.5354
19.5363
19.5359
19.5344
19.5349
19.5346
20.0703
30.2841
160.713
19.5397
19.5293
19.5298
19.5296
19.5302
19.5294
19.5285
19.529
19.5288
20.0054
29.4477
155.612
19.5339
19.5243
19.5244
19.5238
19.5236
19.5231
19.5229
19.5236
19.5231
19.9414
28.6571
150.824
19.5288
19.5188
19.5186
19.5188
19.5181
19.5179
19.5179
19.5182
19.5178
19.8848
27.9392
146.323
19.5239
19.5136
19.5133
19.5137
19.5138
19.5134
19.5135
19.5133
19.5131
19.8354
27.2908
142.082
19.519
19.5092
19.5088
19.5091
19.5094
19.5093
19.5092
19.5089
19.5088
19.7926
26.7043
138.081
19.5143
19.5053
19.5052
19.5038
19.5058
19.5043
19.5057
19.5044
19.505
19.7552
26.1725
134.298
33.018
33.9598
34.0223
34.0144
34.0306
34.0341
34.0262
34.0221
34.0167
34.2333
40.1913
130.717
90.924
91.2807
91.3276
91.3472
91.3704
91.3785
91.3813
91.3753
91.3638
91.543
93.9816
127.322
322.149
322.149
322.149
322.149
322.149
322.149
322.149
322.149
322.149
322.149
322.149
322.149
171.989
30.2584
20.2869
19.5968
19.5499
19.5467
19.5463
19.5474
19.5476
19.5455
19.5459
19.5481
166.16
30.7834
20.3615
19.5968
19.5431
19.5403
19.5388
19.5404
19.5396
19.539
19.5404
19.5417
160.713
30.1496
20.302
19.5866
19.5369
19.5334
19.5332
19.5335
19.5324
19.5323
19.5335
19.5354
155.612
29.3637
20.213
19.5737
19.5307
19.527
19.5274
19.5278
19.5272
19.5268
19.5274
19.5288
150.824
28.6016
20.1299
19.5617
19.5243
19.5216
19.5215
19.5223
19.5219
19.5215
19.5224
19.5235
146.323
27.9059
20.0533
19.5504
19.5188
19.5169
19.5166
19.5173
19.5172
19.5173
19.5177
19.5183
142.082
27.2696
19.9874
19.5405
19.5137
19.5122
19.5122
19.5128
19.5123
19.5127
19.5127
19.5134
138.081
26.692
19.9289
19.5319
19.5089
19.5079
19.5079
19.5086
19.5084
19.5081
19.5085
19.5094
134.298
26.1668
19.8775
19.5239
19.5049
19.5037
19.504
19.5043
19.5043
19.5041
19.504
19.505
130.717
39.2327
34.2885
34.0161
33.9947
33.9846
33.9872
33.9773
33.975
33.964
33.968
33.9909
127.322
93.6153
91.4665
91.3217
91.313
91.2757
91.2853
91.2717
91.2613
91.2531
91.2523
91.1844
322.149
322.149
322.149
322.149
322.149
322.149
322.149
322.149
322.149
322.149
322.149
322.149
)
;

boundaryField
{
    rotor
    {
        Cmu             0.09;
        kappa           0.41;
        E               9.8;
        type            epsilonWallFunction;
        value           nonuniform List<scalar> 
48
(
576.063
314.621
314.621
314.621
314.621
314.621
314.621
314.621
314.621
314.621
314.621
314.621
314.621
314.621
314.621
314.621
314.621
314.621
314.621
314.621
314.621
314.621
314.621
576.063
576.063
515.543
466.522
426.008
391.966
362.959
337.948
316.16
297.011
280.049
264.918
251.339
576.063
515.543
466.522
426.008
391.966
362.959
337.948
316.16
297.011
280.049
264.918
251.339
)
;
    }
    stator
    {
        Cmu             0.09;
        kappa           0.41;
        E               9.8;
        type            epsilonWallFunction;
        value           nonuniform List<scalar> 
48
(
322.149
322.149
322.149
322.149
322.149
322.149
322.149
322.149
322.149
322.149
322.149
322.149
322.149
322.149
322.149
322.149
322.149
322.149
322.149
322.149
322.149
322.149
322.149
322.149
171.989
166.16
160.713
155.612
150.824
146.323
142.082
138.081
134.298
130.717
127.322
322.149
171.989
166.16
160.713
155.612
150.824
146.323
142.082
138.081
134.298
130.717
127.322
322.149
)
;
    }
    front
    {
        type            empty;
    }
    back
    {
        type            empty;
    }
    procBoundary0to1
    {
        type            processor;
        value           nonuniform List<scalar> 
20
(
71.9944
29.9117
21.4028
19.9219
19.6446
19.5864
19.568
19.557
19.5492
19.542
19.5349
19.5297
19.524
19.5189
19.5138
19.5092
19.505
33.9884
91.1848
322.149
)
;
    }
    procBoundary0to2
    {
        type            processor;
        value           nonuniform List<scalar> 
20
(
58.642
26.1792
20.7959
19.8391
19.6417
19.5982
19.5806
19.5706
19.5613
19.5542
19.5468
19.5408
19.5345
19.5294
19.5241
19.5186
19.5141
33.0216
90.9286
322.149
)
;
    }
}


// ************************************************************************* //
