/*--------------------------------*- C++ -*----------------------------------*\
  =========                 |
  \\      /  F ield         | OpenFOAM: The Open Source CFD Toolbox
   \\    /   O peration     | Website:  https://openfoam.org
    \\  /    A nd           | Version:  6
     \\/     M anipulation  |
\*---------------------------------------------------------------------------*/
FoamFile
{
    version     2.0;
    format      ascii;
    class       volScalarField;
    location    "500";
    object      nut;
}
// * * * * * * * * * * * * * * * * * * * * * * * * * * * * * * * * * * * * * //

dimensions      [0 2 -1 0 0 0 0];

internalField   nonuniform List<scalar> 
768
(
0.000126446
0.00025463
0.000260221
0.000261516
0.00026186
0.0002619
0.00026194
0.000261925
0.000261961
0.000261987
0.000262034
0.000261983
0.000144935
0.000592234
0.00129802
0.00168092
0.001784
0.00180559
0.0018087
0.00180913
0.00180907
0.00180926
0.00180892
0.00180832
0.000160184
0.000743812
0.00213326
0.00335023
0.00377398
0.00387079
0.00389115
0.00389528
0.0038952
0.00389676
0.00389858
0.00389558
0.000175262
0.000844107
0.0024602
0.00383301
0.00430031
0.00440368
0.00442459
0.00442797
0.0044291
0.00442956
0.0044298
0.00442935
0.000190397
0.000940819
0.00267206
0.00399087
0.00439471
0.00448009
0.00449715
0.00450006
0.00450034
0.00450052
0.00450051
0.00450069
0.000205661
0.00104036
0.00285171
0.00408309
0.00442543
0.00449465
0.00450787
0.00450972
0.0045101
0.0045102
0.00450987
0.00450947
0.000221626
0.00114342
0.00301174
0.00416151
0.00444545
0.0045013
0.00451049
0.00451248
0.00451251
0.0045128
0.00451192
0.00451155
0.000237754
0.00124776
0.00316746
0.00421474
0.00445817
0.00450513
0.00451184
0.00451276
0.00451451
0.00451366
0.00451202
0.00451188
0.000254244
0.00135098
0.00330301
0.00425798
0.00446815
0.00450629
0.00451455
0.00451473
0.00451539
0.00451459
0.00451253
0.004512
0.000270789
0.00144708
0.00339959
0.00428822
0.00447604
0.00450761
0.00451373
0.00451609
0.00451609
0.0045154
0.00451478
0.00451579
0.000286873
0.00152562
0.00344039
0.00431381
0.0044847
0.0045099
0.00451636
0.00451604
0.00451468
0.00451501
0.00451657
0.00451804
0.000311342
0.00169035
0.00358907
0.00435967
0.00449038
0.00451275
0.00451701
0.0045148
0.00451474
0.00451649
0.00451619
0.00451604
0.000261967
0.00026198
0.000261994
0.00026198
0.000262007
0.000261988
0.000261966
0.000261936
0.000261932
0.000261876
0.000255654
0.000125886
0.00180737
0.00180617
0.00180506
0.00180392
0.0018031
0.00180253
0.00180236
0.00180252
0.0018023
0.0013573
0.000593838
0.000144389
0.00389405
0.00389168
0.00389013
0.00388859
0.00388767
0.0038879
0.00388436
0.00388309
0.00388051
0.00234663
0.000753506
0.00015983
0.00442848
0.00442776
0.0044273
0.00442702
0.00442671
0.00442635
0.00442642
0.00442586
0.00442355
0.00272736
0.000859192
0.000174842
0.00450022
0.00449989
0.00449979
0.00449976
0.00449968
0.00449972
0.00449991
0.00449957
0.0044973
0.0029618
0.000961542
0.000189925
0.00450967
0.00450996
0.00451014
0.00451034
0.00451033
0.00451024
0.00451066
0.0045103
0.00450806
0.00315421
0.00106805
0.00020529
0.00451143
0.00451144
0.00451205
0.0045126
0.00451261
0.00451309
0.00451356
0.00451203
0.00451023
0.00332881
0.00118101
0.000221058
0.00451288
0.00451296
0.00451215
0.00451308
0.0045137
0.00451313
0.00451339
0.00451267
0.00451193
0.00350416
0.00129231
0.000237193
0.00451332
0.00451418
0.00451283
0.00451201
0.00451219
0.00451371
0.00451498
0.00451394
0.00451303
0.00363487
0.00142401
0.00025286
0.00451618
0.00451488
0.00451464
0.00451495
0.00451416
0.00451385
0.00451451
0.00451432
0.00451382
0.00380336
0.00154293
0.000269449
0.00451734
0.00451604
0.00451538
0.00451504
0.00451494
0.00451483
0.0045146
0.00451416
0.00451501
0.00388821
0.00170179
0.000285611
0.00451654
0.00451628
0.0045154
0.00451363
0.00451275
0.00451588
0.00451731
0.00451543
0.00451637
0.00399426
0.0019521
0.000305187
0.00146353
0.00303276
0.00413565
0.00444689
0.00450103
0.00451224
0.00451677
0.00451698
0.00451643
0.00451773
0.00451766
0.00451793
0.00338503
0.00405051
0.00439735
0.00449286
0.00451153
0.00451518
0.00451911
0.00451841
0.00451714
0.00451684
0.00451711
0.00451744
0.00424583
0.00441067
0.00448637
0.00451155
0.00451714
0.00451658
0.00451632
0.0045155
0.0045135
0.00451558
0.00451678
0.00451914
0.00446339
0.00449378
0.00450969
0.00451518
0.00451699
0.00451797
0.00451847
0.0045181
0.0045169
0.00451644
0.0045153
0.00451838
0.00451866
0.00451876
0.00451817
0.00451702
0.00451598
0.00451595
0.00451433
0.00451423
0.00451704
0.00435621
0.00324823
0.00117849
0.00451775
0.00451704
0.00451659
0.00451775
0.00451608
0.00451491
0.00451583
0.00451867
0.00451848
0.00447698
0.0041386
0.00301151
0.00451999
0.00451653
0.00451644
0.0045156
0.00451632
0.00451695
0.00451639
0.00451707
0.00451517
0.00450803
0.00442856
0.00416554
0.00452071
0.0045206
0.00452016
0.00451876
0.00452033
0.00451906
0.00451787
0.00451532
0.00451563
0.00451441
0.00449955
0.00445134
0.0045078
0.00451379
0.00451659
0.00451808
0.00451819
0.00451872
0.00451899
0.00451848
0.00451863
0.00451863
0.00451844
0.00451909
0.00451697
0.0045182
0.00451866
0.00451923
0.00451891
0.00451939
0.0045192
0.00451928
0.00451931
0.00451924
0.0045195
0.00451739
0.00451919
0.00451961
0.00451984
0.00451989
0.00451953
0.0045199
0.00451976
0.00451989
0.00451986
0.00451994
0.00451781
0.00353171
0.00451965
0.00452026
0.00452038
0.00452029
0.00452014
0.00452042
0.00452043
0.0045203
0.00452017
0.00451984
0.00385729
0.00166579
0.00451955
0.00451962
0.0045194
0.00451911
0.0045194
0.00451917
0.00451893
0.00451809
0.00451842
0.00451787
0.00451503
0.0045065
0.00451683
0.00451923
0.00451977
0.00451942
0.00451949
0.00451937
0.00451965
0.00451968
0.00451932
0.00451968
0.00451892
0.0045175
0.00342299
0.00436035
0.00450525
0.00451873
0.00451989
0.00451975
0.00451995
0.00452051
0.00451999
0.00452028
0.00451985
0.00451947
0.00164341
0.00379303
0.00444682
0.00451464
0.00451985
0.00452022
0.00452011
0.00452052
0.00452029
0.00452063
0.00452029
0.00452023
0.00452023
0.00452061
0.0045206
0.00452068
0.00452063
0.00452078
0.00452074
0.00452071
0.00452057
0.00441291
0.00286798
0.000458224
0.00452047
0.00452085
0.00452092
0.004521
0.00452084
0.004521
0.00452108
0.00452099
0.00452087
0.00438977
0.00280935
0.000467605
0.00452071
0.00452121
0.00452127
0.00452131
0.00452109
0.00452116
0.00452142
0.00452134
0.00452121
0.00439665
0.00287254
0.000482974
0.00452114
0.00452159
0.00452148
0.00452154
0.00452146
0.00452154
0.0045217
0.00452165
0.00452158
0.00441021
0.00295569
0.000499823
0.00452143
0.00452179
0.00452176
0.00452196
0.00452196
0.00452205
0.00452198
0.0045219
0.00452184
0.00442372
0.00303929
0.000517042
0.00452166
0.00452208
0.00452203
0.00452215
0.00452233
0.00452236
0.00452222
0.00452217
0.00452213
0.00443578
0.00311954
0.000534453
0.00452195
0.00452247
0.0045224
0.00452234
0.0045224
0.00452245
0.00452238
0.0045224
0.00452237
0.00444627
0.00319567
0.000551881
0.00452219
0.00452272
0.00452262
0.0045226
0.00452255
0.00452254
0.00452255
0.00452261
0.00452257
0.00445539
0.00326776
0.000569358
0.00451482
0.00451421
0.00451408
0.00451408
0.00451412
0.004514
0.00451403
0.00451407
0.00451407
0.00445471
0.00332957
0.000586797
0.00262542
0.00254843
0.00254335
0.00254393
0.00254278
0.00254245
0.00254313
0.00254338
0.00254382
0.00252667
0.00213398
0.000603816
0.000875326
0.000867012
0.000866208
0.000865991
0.000865847
0.000865776
0.000865685
0.000865708
0.000865843
0.000863914
0.000837703
0.000586991
0.00019825
0.000197508
0.000197445
0.00019742
0.000197415
0.000197423
0.000197377
0.000197335
0.000197338
0.000197313
0.000196634
0.000189625
0.000458268
0.00287544
0.00434855
0.00450838
0.00451982
0.0045205
0.00452072
0.00452066
0.00452047
0.00452086
0.0045208
0.00452073
0.00046783
0.0028184
0.00433001
0.00450694
0.00452013
0.00452084
0.00452119
0.00452099
0.00452105
0.00452126
0.00452096
0.00452099
0.000483328
0.0028773
0.00434174
0.00450815
0.00452036
0.00452136
0.00452126
0.00452133
0.00452154
0.00452167
0.00452139
0.00452131
0.000500243
0.0029561
0.00436043
0.00451013
0.0045207
0.00452171
0.00452155
0.0045216
0.0045217
0.00452186
0.00452177
0.00452172
0.000517484
0.00303733
0.00437821
0.00451206
0.0045212
0.00452194
0.00452201
0.00452188
0.00452196
0.00452212
0.00452194
0.00452197
0.000534791
0.00311548
0.00439473
0.00451379
0.00452157
0.00452215
0.00452226
0.00452204
0.00452224
0.00452215
0.00452209
0.00452214
0.000552204
0.00319059
0.00440906
0.0045153
0.00452193
0.00452242
0.00452242
0.00452224
0.00452244
0.00452228
0.00452232
0.00452235
0.000569677
0.00326193
0.00442181
0.00451657
0.00452226
0.00452262
0.00452261
0.00452248
0.00452258
0.00452258
0.00452255
0.00452248
0.000587208
0.00332406
0.0044247
0.00450899
0.00451384
0.00451409
0.0045141
0.00451402
0.00451411
0.00451411
0.00451412
0.00451405
0.000604596
0.00218473
0.00252156
0.00254359
0.00254535
0.0025462
0.00254598
0.00254676
0.00254701
0.00254789
0.00254757
0.00254591
0.000590586
0.000840503
0.000864446
0.000866191
0.000866317
0.000866764
0.000866629
0.00086676
0.000866988
0.000867047
0.000867023
0.000867707
0.000190388
0.000196697
0.000197281
0.000197328
0.000197349
0.000197386
0.000197391
0.000197371
0.000197451
0.000197438
0.0001974
0.000197537
)
;

boundaryField
{
    rotor
    {
        type            nutkWallFunction;
        Cmu             0.09;
        kappa           0.41;
        E               9.8;
        value           nonuniform List<scalar> 
48
(
1.52451e-05
3.27569e-05
3.29538e-05
3.29989e-05
3.30109e-05
3.30123e-05
3.30136e-05
3.30131e-05
3.30144e-05
3.30153e-05
3.30169e-05
3.30152e-05
3.30146e-05
3.3015e-05
3.30155e-05
3.30151e-05
3.3016e-05
3.30153e-05
3.30145e-05
3.30135e-05
3.30134e-05
3.30114e-05
3.27932e-05
1.52219e-05
1.52451e-05
1.78324e-05
2.02529e-05
2.26367e-05
2.49961e-05
2.73363e-05
2.96809e-05
3.2011e-05
3.43353e-05
3.66437e-05
3.89187e-05
4.14765e-05
1.52219e-05
1.78105e-05
2.02389e-05
2.26203e-05
2.49779e-05
2.73221e-05
2.96595e-05
3.19901e-05
3.42841e-05
3.65947e-05
3.88729e-05
4.12583e-05
)
;
    }
    stator
    {
        type            nutkWallFunction;
        Cmu             0.09;
        kappa           0.41;
        E               9.8;
        value           nonuniform List<scalar> 
48
(
2.99512e-05
2.99196e-05
2.99169e-05
2.99158e-05
2.99156e-05
2.9916e-05
2.9914e-05
2.99122e-05
2.99124e-05
2.99113e-05
2.98823e-05
2.9578e-05
2.96115e-05
2.9885e-05
2.99099e-05
2.99119e-05
2.99128e-05
2.99144e-05
2.99146e-05
2.99138e-05
2.99172e-05
2.99166e-05
2.9915e-05
2.99209e-05
6.13146e-05
6.32416e-05
6.53595e-05
6.75167e-05
6.96766e-05
7.18307e-05
7.39806e-05
7.6125e-05
7.82642e-05
8.03918e-05
8.14826e-05
2.96115e-05
6.13132e-05
6.3234e-05
6.53476e-05
6.75027e-05
6.96619e-05
7.18195e-05
7.397e-05
7.61146e-05
7.82509e-05
8.03666e-05
8.13619e-05
2.9578e-05
)
;
    }
    front
    {
        type            empty;
    }
    back
    {
        type            empty;
    }
    procBoundary0to1
    {
        type            processor;
        value           nonuniform List<scalar> 
20
(
0.00117569
0.00293873
0.00413475
0.00444559
0.00450533
0.00451679
0.0045191
0.00452007
0.00452045
0.00452094
0.00452144
0.00452158
0.00452185
0.00452207
0.00452234
0.00452256
0.00451406
0.00254613
0.000867782
0.000197607
)
;
    }
    procBoundary0to2
    {
        type            processor;
        value           nonuniform List<scalar> 
20
(
0.00146277
0.00337097
0.00426232
0.00446625
0.00450878
0.0045165
0.00451885
0.00451958
0.0045201
0.00452043
0.0045208
0.00452105
0.00452131
0.00452159
0.00452186
0.00452224
0.00451483
0.0026251
0.000875257
0.000198234
)
;
    }
}


// ************************************************************************* //
