/*--------------------------------*- C++ -*----------------------------------*\
  =========                 |
  \\      /  F ield         | OpenFOAM: The Open Source CFD Toolbox
   \\    /   O peration     | Website:  https://openfoam.org
    \\  /    A nd           | Version:  6
     \\/     M anipulation  |
\*---------------------------------------------------------------------------*/
FoamFile
{
    version     2.0;
    format      ascii;
    class       volScalarField;
    location    "500";
    object      p;
}
// * * * * * * * * * * * * * * * * * * * * * * * * * * * * * * * * * * * * * //

dimensions      [0 2 -2 0 0 0 0];

internalField   nonuniform List<scalar> 
768
(
-0.0954628
0.597751
1.52539
2.46699
3.39169
4.29887
5.17851
6.03728
6.87187
7.69157
8.49636
9.2963
-0.303256
0.534244
1.5318
2.51116
3.45663
4.36992
5.24876
6.09929
6.92306
7.7279
8.51734
9.29977
-0.368454
0.550136
1.60718
2.62249
3.58571
4.50144
5.37244
6.20701
7.00986
7.78991
8.55255
9.30664
-0.313841
0.671309
1.77157
2.81024
3.78
4.68788
5.5413
6.35064
7.12383
7.87074
8.59864
9.31664
-0.152885
0.895096
2.02733
3.07596
4.03959
4.9262
5.75182
6.52507
7.26135
7.96665
8.65458
9.32933
0.114475
1.22151
2.37326
3.41854
4.35758
5.21292
5.995
6.72702
7.41452
8.07664
8.71541
9.34706
0.494464
1.65432
2.80867
3.82939
4.73001
5.53397
6.26626
6.94308
7.58139
8.19066
8.78279
9.36391
1.00929
2.20524
3.33789
4.30675
5.14403
5.88334
6.5518
7.1694
7.75122
8.30824
8.84968
9.38258
1.68598
2.89427
3.96024
4.84391
5.59299
6.25058
6.84575
7.39818
7.92125
8.42472
8.91608
9.40108
2.5737
3.73772
4.67848
5.42961
6.06361
6.6247
7.13929
7.62329
8.0869
8.53745
8.98015
9.41915
3.7471
4.75452
5.4713
6.04238
6.53799
6.99286
7.42362
7.83894
8.24448
8.64407
9.04073
9.43647
5.36248
5.93433
6.30235
6.64836
6.99377
7.34122
7.68998
8.03966
8.39029
8.74233
9.09634
9.45245
10.0932
10.8967
11.7096
12.5404
13.3919
14.2706
15.1782
16.1178
17.0876
18.0828
19.0877
19.8533
10.0797
10.8656
11.6622
12.4774
13.3161
14.1846
15.087
16.0272
17.0062
18.0211
19.0582
19.92
10.0579
10.815
11.5838
12.3729
13.1884
14.0381
14.9281
15.8648
16.8521
17.8907
18.9699
19.8997
10.0315
10.7521
11.4852
12.2398
13.0236
13.8458
14.7147
15.6394
16.6273
17.6828
18.7972
19.7891
10.0033
10.6804
11.3725
12.0848
12.8297
13.6147
14.4529
15.3543
16.3318
17.3935
18.5353
19.5887
9.97228
10.6054
11.2487
11.9158
12.6125
13.3532
14.1482
15.0142
15.9662
17.0206
18.1809
19.2914
9.94325
10.5261
11.1215
11.7365
12.3818
13.0681
13.8101
14.6248
15.5347
16.5635
17.7228
18.8869
9.9133
10.4478
10.9924
11.5549
12.1434
12.7695
13.4467
14.1952
15.0406
16.016
17.1537
18.3522
9.88465
10.3712
10.866
11.3747
11.9046
12.4646
13.0679
13.7332
14.4894
15.3788
16.4482
17.6603
9.85756
10.2983
10.7447
11.2006
11.671
12.1621
12.6842
13.2524
13.8928
14.6495
15.5953
16.7616
9.83265
10.2304
10.6309
11.0361
11.4482
11.8706
12.3081
12.7696
13.2714
13.8483
14.57
15.5809
9.81007
10.1684
10.5265
10.8842
11.2413
11.5977
11.9528
12.3066
12.6584
13.0111
13.3851
13.9623
7.85764
7.16938
7.08521
7.20453
7.40945
7.65831
7.93222
8.22189
8.52228
8.83094
9.14633
9.46689
8.78982
7.98259
7.70184
7.67146
7.76872
7.93629
8.14612
8.38302
8.63874
8.90858
9.18967
9.47919
9.14859
8.47738
8.15
8.04299
8.06777
8.17348
8.33091
8.52292
8.73957
8.97508
9.22607
9.48925
9.31447
8.78368
8.47116
8.3308
8.31061
8.37144
8.48733
8.64185
8.82466
9.02993
9.25454
9.49607
9.79016
10.113
10.4326
10.7468
11.0535
11.3494
11.6294
11.8842
12.0955
12.2215
12.145
11.4661
9.7729
10.0647
10.35
10.6252
10.8869
11.1296
11.3451
11.5184
11.6219
11.5987
11.3248
10.526
9.75861
10.024
10.279
10.5196
10.7417
10.9391
11.1017
11.2129
11.2436
11.1428
10.8223
10.1579
9.74771
9.99139
10.2197
10.4297
10.6175
10.7769
10.8976
10.9635
10.949
10.8149
10.5081
9.98314
9.403
8.9815
8.70075
8.55188
8.50559
8.53472
8.6183
8.74171
8.89524
9.07349
9.27459
9.49895
9.45551
9.11438
8.86823
8.72156
8.66098
8.66798
8.72653
8.82413
8.95215
9.10573
9.28467
9.49455
9.48907
9.20712
8.99136
8.85259
8.78484
8.77652
8.8156
8.89175
8.99727
9.12761
9.28343
9.47823
9.51166
9.27373
9.08417
8.95426
8.88345
8.86445
8.88826
8.94649
9.03205
9.1401
9.26989
9.43563
9.74133
9.96757
10.1721
10.3546
10.5126
10.6404
10.7284
10.7623
10.7213
10.5779
10.3028
9.88636
9.74207
9.95389
10.1358
10.2932
10.4252
10.5267
10.5894
10.6009
10.5452
10.4041
10.1629
9.82653
9.7554
9.95166
10.1102
10.2439
10.3529
10.4327
10.4755
10.4714
10.4084
10.2746
10.0639
9.78642
9.79478
9.96208
10.0941
10.2051
10.2937
10.3552
10.3826
10.3676
10.3013
10.1764
9.9916
9.75811
9.52743
9.3228
9.15442
9.03381
8.96234
8.93581
8.94763
8.99083
9.05884
9.14588
9.24641
9.34357
9.53876
9.35967
9.20881
9.09635
9.02543
8.99352
8.99582
9.02646
9.0793
9.14781
9.22369
9.2862
9.54705
9.38776
9.25088
9.14591
9.07611
9.04036
9.03508
9.0553
9.0953
9.14827
9.20501
9.24744
9.55322
9.40945
9.28403
9.18523
9.11674
9.07821
9.06684
9.0785
9.1078
9.14811
9.19049
9.22018
9.55785
9.42628
9.31
9.21655
9.14942
9.10881
9.09262
9.09727
9.11784
9.14803
9.17964
9.20108
9.56138
9.43944
9.3306
9.24149
9.1755
9.13338
9.11329
9.11231
9.12581
9.14802
9.17159
9.18727
9.56406
9.44969
9.34679
9.26139
9.19619
9.15305
9.12979
9.12438
9.13221
9.14824
9.16577
9.17751
9.56611
9.45768
9.35961
9.27697
9.21247
9.16848
9.14277
9.13386
9.13727
9.14853
9.1616
9.17047
9.56768
9.46381
9.36943
9.2894
9.22472
9.18057
9.15259
9.14128
9.14115
9.14894
9.15869
9.16558
9.56887
9.46839
9.37701
9.29811
9.2343
9.18919
9.16019
9.14663
9.1442
9.14928
9.15675
9.16216
9.56972
9.4717
9.3821
9.30423
9.24098
9.19536
9.16556
9.15053
9.14645
9.14969
9.15558
9.15998
9.57018
9.47326
9.38434
9.30697
9.24419
9.19832
9.16826
9.15255
9.14776
9.15016
9.15533
9.15925
9.88428
9.98252
10.0851
10.1746
10.2454
10.2916
10.3067
10.284
10.2169
10.101
9.93752
9.73728
9.93912
10.0025
10.0801
10.1508
10.2061
10.2394
10.2449
10.2167
10.15
10.0423
9.89622
9.72161
9.97568
10.0187
10.0769
10.1318
10.174
10.1968
10.1945
10.1623
10.0966
9.99627
9.86431
9.70954
10.0008
10.031
10.0746
10.1165
10.1479
10.1619
10.1535
10.1184
10.054
9.9599
9.83934
9.70019
10.0181
10.0398
10.0725
10.1041
10.1266
10.1335
10.1202
10.083
10.02
9.93108
9.81975
9.69284
10.0302
10.0462
10.0706
10.0941
10.1093
10.1106
10.0934
10.0546
9.99282
9.90828
9.80431
9.68711
10.0386
10.0505
10.0688
10.0859
10.0954
10.0922
10.0719
10.0321
9.97135
9.89031
9.79224
9.6826
10.0445
10.0534
10.0671
10.0794
10.0844
10.0777
10.055
10.0143
9.95456
9.87634
9.78286
9.67914
10.0485
10.0553
10.0655
10.0744
10.0758
10.0665
10.0419
10.0008
9.94174
9.86567
9.77573
9.67651
10.0512
10.0565
10.0644
10.0704
10.0695
10.0582
10.0324
9.99076
9.93227
9.85782
9.7705
9.6746
10.053
10.0573
10.0636
10.0677
10.0651
10.0523
10.0257
9.98379
9.92571
9.85242
9.76691
9.67328
10.0538
10.0576
10.0631
10.0664
10.0632
10.0497
10.0228
9.98071
9.92282
9.85009
9.76536
9.67274
)
;

boundaryField
{
    rotor
    {
        type            zeroGradient;
    }
    stator
    {
        type            zeroGradient;
    }
    front
    {
        type            empty;
    }
    back
    {
        type            empty;
    }
    procBoundary0to1
    {
        type            processor;
        value           nonuniform List<scalar> 
20
(
11.5081
10.5592
10.1855
10.0064
9.906
9.84302
9.80006
9.76925
9.74611
9.72843
9.71451
9.70358
9.6948
9.68786
9.68229
9.67794
9.67461
9.67214
9.67045
9.66978
)
;
    }
    procBoundary0to2
    {
        type            processor;
        value           nonuniform List<scalar> 
20
(
7.83911
8.76966
9.12954
9.29756
9.38863
9.44373
9.47984
9.50484
9.52293
9.53634
9.54654
9.55437
9.5605
9.56525
9.56899
9.57185
9.57408
9.57569
9.57682
9.57737
)
;
    }
}


// ************************************************************************* //
