/*--------------------------------*- C++ -*----------------------------------*\
  =========                 |
  \\      /  F ield         | OpenFOAM: The Open Source CFD Toolbox
   \\    /   O peration     | Website:  https://openfoam.org
    \\  /    A nd           | Version:  6
     \\/     M anipulation  |
\*---------------------------------------------------------------------------*/
FoamFile
{
    version     2.0;
    format      ascii;
    class       surfaceScalarField;
    location    "500";
    object      phi;
}
// * * * * * * * * * * * * * * * * * * * * * * * * * * * * * * * * * * * * * //

dimensions      [0 3 -1 0 0 0 0];

internalField   nonuniform List<scalar> 
1468
(
2.80966e-07
7.04744e-07
2.27474e-07
1.08647e-07
2.17417e-07
-1.48927e-08
3.2636e-07
-8.26229e-08
4.26436e-07
-1.20404e-07
5.78814e-07
-1.31514e-07
6.93831e-07
-1.29987e-07
8.26871e-07
-1.14729e-07
9.08876e-07
-9.46713e-08
9.90841e-07
-6.71897e-08
1.01755e-06
-3.8757e-08
-6.36331e-09
1.03442e-06
5.34726e-07
2.04463e-07
7.49942e-07
-6.93479e-08
9.16708e-07
-1.78694e-07
1.10736e-06
-2.53909e-07
1.27704e-06
-2.92635e-07
1.45587e-06
-2.97815e-07
1.60244e-06
-2.79979e-07
1.74095e-06
-2.43822e-07
1.8388e-06
-1.96477e-07
1.91852e-06
-1.40361e-07
1.9547e-06
-7.97077e-08
-1.55307e-08
1.96748e-06
4.93012e-07
-2.64981e-07
8.37e-07
-3.8609e-07
1.14156e-06
-4.76015e-07
1.43811e-06
-5.34413e-07
1.69703e-06
-5.51164e-07
1.93848e-06
-5.28536e-07
2.13475e-06
-4.78613e-07
2.30558e-06
-4.07101e-07
2.42831e-06
-3.23032e-07
2.52209e-06
-2.29078e-07
2.56814e-06
-1.30621e-07
-2.83147e-08
2.58331e-06
5.9847e-07
-8.40459e-07
1.05387e-06
-8.22164e-07
1.4817e-06
-8.94844e-07
1.88026e-06
-9.20535e-07
2.22639e-06
-8.97417e-07
2.52887e-06
-8.23545e-07
2.77326e-06
-7.27424e-07
2.97368e-06
-6.02689e-07
3.11936e-06
-4.75163e-07
3.22471e-06
-3.31368e-07
3.27963e-06
-1.93261e-07
-4.38485e-08
3.29685e-06
7.74596e-07
-1.58559e-06
1.37587e-06
-1.3995e-06
1.94087e-06
-1.43727e-06
2.43844e-06
-1.41398e-06
2.87692e-06
-1.31065e-06
3.22236e-06
-1.18139e-06
3.51856e-06
-1.0019e-06
3.7276e-06
-8.32047e-07
3.90282e-06
-6.31033e-07
4.00098e-06
-4.53195e-07
4.0755e-06
-2.50645e-07
-7.3056e-08
4.07968e-06
1.01926e-06
-2.54764e-06
1.8101e-06
-2.1473e-06
2.51726e-06
-2.11238e-06
3.14258e-06
-1.98382e-06
3.62464e-06
-1.79652e-06
4.0446e-06
-1.54831e-06
4.33118e-06
-1.30815e-06
4.58614e-06
-1.04194e-06
4.73136e-06
-8.04746e-07
4.86508e-06
-5.49835e-07
4.90585e-06
-3.24927e-07
-8.12731e-08
4.94264e-06
1.34579e-06
-3.86392e-06
2.38008e-06
-3.12661e-06
3.25233e-06
-2.95372e-06
3.96129e-06
-2.65498e-06
4.52099e-06
-2.30092e-06
4.93433e-06
-1.94134e-06
5.25391e-06
-1.58662e-06
5.47583e-06
-1.2575e-06
5.64313e-06
-9.43613e-07
5.74185e-06
-6.53352e-07
5.80528e-06
-3.71663e-07
-1.03722e-07
5.81556e-06
1.81939e-06
-5.63185e-06
3.12412e-06
-4.42297e-06
4.17538e-06
-3.94477e-06
4.95144e-06
-3.39547e-06
5.51918e-06
-2.83636e-06
5.92829e-06
-2.3198e-06
6.22175e-06
-1.8568e-06
6.42816e-06
-1.44513e-06
6.57115e-06
-1.07405e-06
6.66111e-06
-7.35732e-07
6.71034e-06
-4.1944e-07
-1.16839e-07
6.72292e-06
2.47801e-06
-8.10985e-06
4.15424e-06
-6.06102e-06
5.31296e-06
-5.11194e-06
6.10379e-06
-4.15991e-06
6.63256e-06
-3.34098e-06
6.99197e-06
-2.65567e-06
7.23791e-06
-2.08358e-06
7.40677e-06
-1.59793e-06
7.51953e-06
-1.1758e-06
7.58918e-06
-8.00182e-07
7.62581e-06
-4.54761e-07
-1.28278e-07
7.63399e-06
3.52172e-06
-1.16118e-05
5.53655e-06
-8.09313e-06
6.73384e-06
-6.27279e-06
7.41982e-06
-4.84131e-06
7.83889e-06
-3.74673e-06
8.10508e-06
-2.9076e-06
8.27992e-06
-2.24556e-06
8.39659e-06
-1.70304e-06
8.47119e-06
-1.24452e-06
8.51608e-06
-8.42041e-07
8.53723e-06
-4.78424e-07
-1.36777e-07
8.54061e-06
5.27496e-06
-1.68994e-05
7.48329e-06
-1.02852e-05
8.42423e-06
-7.24318e-06
8.86771e-06
-5.2794e-06
9.10063e-06
-3.97026e-06
9.23754e-06
-3.03438e-06
9.32509e-06
-2.32007e-06
9.38046e-06
-1.74836e-06
9.41419e-06
-1.27001e-06
9.4308e-06
-8.55848e-07
9.43601e-06
-4.84419e-07
-1.39239e-07
9.43351e-06
8.71372e-06
-2.5611e-05
1.01228e-05
-1.17172e-05
1.03554e-05
-7.45984e-06
1.03723e-05
-5.30262e-06
1.03626e-05
-3.96333e-06
1.03555e-05
-3.02325e-06
1.03504e-05
-2.30964e-06
1.03451e-05
-1.73745e-06
1.03371e-05
-1.25846e-06
1.03261e-05
-8.44824e-07
1.03143e-05
-4.76627e-07
1.03059e-05
-1.37686e-07
9.97769e-07
2.49275e-08
9.46397e-07
5.77197e-08
8.47647e-07
8.77497e-08
7.33986e-07
1.16668e-07
5.84158e-07
1.40426e-07
4.25231e-07
1.59268e-07
2.49341e-07
1.68946e-07
7.88155e-08
1.67775e-07
-7.89417e-08
1.52313e-07
-2.01572e-07
1.18087e-07
-2.72033e-07
6.50944e-08
-2.739e-07
1.93722e-06
4.9435e-08
1.8812e-06
1.14588e-07
1.78525e-06
1.77462e-07
1.66397e-06
2.36679e-07
1.50936e-06
2.89078e-07
1.33433e-06
3.31657e-07
1.13864e-06
3.59611e-07
9.34547e-07
3.67688e-07
7.31745e-07
3.50474e-07
5.41451e-07
3.03482e-07
3.67005e-07
2.33788e-07
9.14636e-08
2.55226e-06
7.48053e-08
2.48852e-06
1.78274e-07
2.37994e-06
2.7954e-07
2.23747e-06
3.77056e-07
2.05316e-06
4.66881e-07
1.83617e-06
5.44903e-07
1.58518e-06
6.04915e-07
1.30929e-06
6.387e-07
1.0154e-06
6.38639e-07
7.13519e-07
5.98843e-07
4.10296e-07
5.32282e-07
4.99942e-07
3.26556e-06
9.73877e-08
3.19564e-06
2.4763e-07
3.07654e-06
3.89449e-07
2.91483e-06
5.35527e-07
2.70203e-06
6.6996e-07
2.44344e-06
7.98689e-07
2.13378e-06
9.04458e-07
1.78084e-06
9.85239e-07
1.38812e-06
1.02253e-06
9.71464e-07
1.01003e-06
5.45068e-07
9.53654e-07
1.03663e-06
4.06251e-06
1.27966e-07
3.9774e-06
3.08839e-07
3.86288e-06
5.10168e-07
3.67888e-06
6.96379e-07
3.45247e-06
8.95177e-07
3.15112e-06
1.07724e-06
2.79436e-06
1.25555e-06
2.36088e-06
1.40107e-06
1.86705e-06
1.5079e-06
1.31756e-06
1.54727e-06
7.306e-07
1.51512e-06
1.75868e-06
4.89726e-06
1.39992e-07
4.83951e-06
3.82496e-07
4.70255e-06
6.13336e-07
4.53374e-06
8.64905e-07
4.28126e-06
1.11248e-06
3.97092e-06
1.37513e-06
3.56414e-06
1.63028e-06
3.06959e-06
1.87781e-06
2.46496e-06
2.08249e-06
1.75803e-06
2.21643e-06
9.88408e-07
2.26891e-06
2.70913e-06
5.79526e-06
1.66424e-07
5.72321e-06
4.35086e-07
5.61015e-06
7.17056e-07
5.4355e-06
1.00914e-06
5.19942e-06
1.32461e-06
4.87817e-06
1.65901e-06
4.4597e-06
2.01904e-06
3.90926e-06
2.38698e-06
3.20628e-06
2.74674e-06
2.3479e-06
3.05377e-06
1.31014e-06
3.22772e-06
4.01168e-06
6.70106e-06
1.80971e-07
6.64273e-06
4.8382e-07
6.54002e-06
7.98364e-07
6.38942e-06
1.13803e-06
6.17269e-06
1.50858e-06
5.87763e-06
1.92581e-06
5.46682e-06
2.3928e-06
4.90588e-06
2.91809e-06
4.13807e-06
3.48314e-06
3.09231e-06
4.03752e-06
1.79534e-06
4.52711e-06
5.75802e-06
7.61677e-06
1.92294e-07
7.56926e-06
5.17672e-07
7.48972e-06
8.61031e-07
7.36767e-06
1.23604e-06
7.19405e-06
1.65811e-06
6.94514e-06
2.14704e-06
6.58858e-06
2.72357e-06
6.06434e-06
3.41349e-06
5.2806e-06
4.23609e-06
4.13225e-06
5.18966e-06
2.44598e-06
6.12953e-06
8.21042e-06
8.52736e-06
1.96731e-07
8.49463e-06
5.36311e-07
8.44107e-06
8.98843e-07
8.35768e-06
1.29864e-06
8.23897e-06
1.7592e-06
8.06216e-06
2.30277e-06
7.79911e-06
2.9702e-06
7.38408e-06
3.81255e-06
6.70305e-06
4.90893e-06
5.5058e-06
6.33998e-06
3.50053e-06
8.16395e-06
1.16863e-05
9.42474e-06
1.9662e-07
9.40877e-06
5.40178e-07
9.38242e-06
9.0995e-07
9.34336e-06
1.32304e-06
9.28526e-06
1.80271e-06
9.19889e-06
2.37712e-06
9.06369e-06
3.09497e-06
8.83386e-06
4.0331e-06
8.3921e-06
5.34054e-06
7.45395e-06
7.3013e-06
5.24843e-06
1.03361e-05
1.69382e-05
1.03022e-05
1.89836e-07
1.03032e-05
5.28252e-07
1.0305e-05
8.95079e-07
1.03092e-05
1.31005e-06
1.03127e-05
1.79035e-06
1.03196e-05
2.36724e-06
1.03276e-05
3.08382e-06
1.03372e-05
4.02703e-06
1.03193e-05
5.36768e-06
1.0089e-05
7.52816e-06
8.67699e-06
1.17719e-05
2.56254e-05
1.67211e-05
-9.19223e-06
1.33812e-05
-8.37593e-06
1.22758e-05
-6.38674e-06
1.18067e-05
-4.83999e-06
1.15645e-05
-3.7244e-06
1.14261e-05
-2.8817e-06
1.1339e-05
-2.21737e-06
1.12797e-05
-1.67045e-06
1.1234e-05
-1.20733e-06
1.11967e-05
-8.04896e-07
1.11681e-05
-4.49301e-07
-1.27487e-07
1.11532e-05
1.79663e-05
-3.94272e-06
1.50968e-05
-5.52773e-06
1.37361e-05
-5.01934e-06
1.30416e-05
-4.16281e-06
1.26588e-05
-3.35096e-06
1.24285e-05
-2.65786e-06
1.22809e-05
-2.07069e-06
1.21785e-05
-1.56757e-06
1.21015e-05
-1.12989e-06
1.20402e-05
-7.45199e-07
1.19943e-05
-4.07834e-07
-1.12722e-07
1.19714e-05
1.78024e-05
-1.98532e-06
1.59581e-05
-3.68628e-06
1.47767e-05
-3.86876e-06
1.40701e-05
-3.46767e-06
1.36362e-05
-2.92579e-06
1.33588e-05
-2.38519e-06
1.31733e-05
-1.88466e-06
1.30411e-05
-1.43295e-06
1.294e-05
-1.02519e-06
1.2857e-05
-6.60797e-07
1.27916e-05
-3.43034e-07
-8.21245e-08
1.27584e-05
1.76336e-05
-1.13927e-06
1.64824e-05
-2.55e-06
1.55745e-05
-2.9603e-06
1.49409e-05
-2.85071e-06
1.45135e-05
-2.51431e-06
1.42232e-05
-2.10542e-06
1.40195e-05
-1.68886e-06
1.38702e-05
-1.28767e-06
1.37518e-05
-9.10161e-07
1.36498e-05
-5.61735e-07
1.35606e-05
-2.58505e-07
1.35072e-05
-3.71561e-08
1.11558e-05
1.78987e-07
1.11733e-05
5.00428e-07
1.1203e-05
8.56124e-07
1.12451e-05
1.26075e-06
1.13045e-05
1.7273e-06
1.13923e-05
2.27852e-06
1.15316e-05
2.94727e-06
1.17721e-05
3.79219e-06
1.22396e-05
4.90985e-06
1.33389e-05
6.45312e-06
1.66684e-05
8.45286e-06
9.27469e-06
1.19819e-05
1.60091e-07
1.20172e-05
4.5606e-07
1.20722e-05
7.95879e-07
1.21462e-05
1.18359e-06
1.22493e-05
1.62675e-06
1.23975e-05
2.13468e-06
1.26274e-05
2.72695e-06
1.30079e-05
3.42375e-06
1.36971e-05
4.23922e-06
1.50596e-05
5.10778e-06
1.792e-05
5.61505e-06
4.04735e-06
1.27798e-05
1.31358e-07
1.28355e-05
3.92739e-07
1.29126e-05
7.13691e-07
1.30119e-05
1.08301e-06
1.31444e-05
1.49653e-06
1.33307e-05
1.95419e-06
1.3607e-05
2.45928e-06
1.40383e-05
3.00421e-06
1.47434e-05
3.5497e-06
1.5921e-05
3.95055e-06
1.77658e-05
3.78279e-06
2.09296e-06
1.35492e-05
8.23109e-08
1.36301e-05
3.07155e-07
1.3727e-05
6.14607e-07
1.38441e-05
9.69e-07
1.39937e-05
1.35275e-06
1.41976e-05
1.76021e-06
1.44868e-05
2.18175e-06
1.49111e-05
2.59495e-06
1.55413e-05
2.93629e-06
1.64525e-05
3.05662e-06
1.76026e-05
2.64587e-06
1.24565e-06
2.18411e-06
-7.21235e-07
1.45482e-06
-1.82598e-06
7.71409e-07
-2.30171e-06
2.39836e-07
-2.33201e-06
-1.50936e-07
-2.13562e-06
-4.33115e-07
-1.83148e-06
-6.39481e-07
-1.48751e-06
-7.95608e-07
-1.13276e-06
-9.23637e-07
-7.82086e-07
-1.04208e-06
-4.43118e-07
-1.16262e-06
-1.3855e-07
6.04988e-08
-1.25597e-06
1.73576e-06
-4.89722e-07
1.2525e-06
-1.35331e-06
7.46295e-07
-1.79682e-06
3.08222e-07
-1.91217e-06
-3.5608e-08
-1.80742e-06
-2.97941e-07
-1.58391e-06
-4.96595e-07
-1.29967e-06
-6.51409e-07
-9.86714e-07
-7.81461e-07
-6.5838e-07
-9.10498e-07
-3.19322e-07
-1.06793e-06
1.80224e-08
2.38083e-07
-1.25948e-06
1.40808e-06
-3.48766e-07
1.07754e-06
-1.02862e-06
6.93005e-07
-1.43324e-06
3.38364e-07
-1.57e-06
4.15414e-08
-1.52287e-06
-1.95149e-07
-1.35789e-06
-3.80296e-07
-1.12217e-06
-5.2698e-07
-8.45405e-07
-6.50953e-07
-5.37181e-07
-7.78186e-07
-1.92911e-07
-9.72837e-07
2.0909e-07
6.57899e-07
-1.38417e-06
1.1658e-06
-2.57037e-07
9.28829e-07
-7.99502e-07
6.36539e-07
-1.14465e-06
3.46932e-07
-1.29614e-06
9.31029e-08
-1.28531e-06
-1.16673e-07
-1.16256e-06
-2.85306e-07
-9.67252e-07
-4.19239e-07
-7.2234e-07
-5.29435e-07
-4.36393e-07
-6.3595e-07
-9.4165e-08
-8.12076e-07
3.82636e-07
-1.75978e-06
1.59095e-06
-1.17235e-06
-1.02382e-08
-1.05971e-06
1.87999e-07
-9.45605e-07
4.97965e-07
-8.18805e-07
8.43774e-07
-6.62294e-07
1.20125e-06
-4.56232e-07
1.5617e-06
-1.75491e-07
1.91077e-06
2.12575e-07
2.21848e-06
7.4301e-07
2.41925e-06
1.42529e-06
2.38799e-06
2.15797e-06
1.92239e-06
8.21851e-07
-1.07779e-06
-1.94446e-07
-9.25813e-07
3.25259e-08
-8.00499e-07
3.73845e-07
-6.71668e-07
7.19321e-07
-5.16884e-07
1.0545e-06
-3.18758e-07
1.37295e-06
-5.83983e-08
1.66169e-06
2.83069e-07
1.88906e-06
7.18034e-07
1.99726e-06
1.22726e-06
1.89065e-06
1.71166e-06
1.44478e-06
5.85278e-07
-9.8015e-07
-6.08233e-07
-7.91857e-07
-1.60919e-07
-6.67442e-07
2.48359e-07
-5.44521e-07
5.9924e-07
-3.98329e-07
9.136e-07
-2.14041e-07
1.19587e-06
2.04942e-08
1.43526e-06
3.14856e-07
1.60383e-06
6.6825e-07
1.65375e-06
1.05197e-06
1.51554e-06
1.38583e-06
1.1168e-06
4.37165e-07
-8.19725e-07
-1.54653e-06
-6.47055e-07
-3.33113e-07
-5.43516e-07
1.47495e-07
-4.34502e-07
4.95863e-07
-3.01251e-07
7.87574e-07
-1.34045e-07
1.03686e-06
7.35938e-08
1.23583e-06
3.24754e-07
1.36132e-06
6.11786e-07
1.37501e-06
9.05603e-07
1.22905e-06
1.14404e-06
8.81072e-07
3.39437e-07
9.83482e-07
-1.942e-07
8.09252e-07
-6.32006e-07
5.79677e-07
-9.32314e-07
3.43493e-07
-1.07204e-06
1.27532e-07
-1.08136e-06
-5.6827e-08
-9.89276e-07
-2.07602e-07
-8.26092e-07
-3.26869e-07
-6.1075e-07
-4.18356e-07
-3.50683e-07
-4.83136e-07
-3.29932e-08
-4.95219e-07
3.89442e-07
1.09885e-06
8.4412e-07
-1.49127e-07
7.1106e-07
-5.05305e-07
5.3007e-07
-7.56757e-07
3.34303e-07
-8.9138e-07
1.50393e-07
-9.11736e-07
-1.08587e-08
-8.42623e-07
-1.44383e-07
-7.06152e-07
-2.4905e-07
-5.18922e-07
-3.22926e-07
-2.87876e-07
-3.57654e-07
-8.27533e-09
-3.11405e-07
3.35923e-07
7.74211e-07
7.3623e-07
-1.16183e-07
6.3266e-07
-4.08535e-07
4.85198e-07
-6.24273e-07
3.22588e-07
-7.40605e-07
1.65234e-07
-7.6529e-07
2.44164e-08
-7.12762e-07
-9.34753e-08
-5.98159e-07
-1.84855e-07
-4.3693e-07
-2.44822e-07
-2.35446e-07
-2.62279e-07
2.92824e-09
-2.06621e-07
2.73486e-07
5.66925e-07
6.51568e-07
-9.11047e-08
5.68446e-07
-3.31109e-07
4.47771e-07
-5.11044e-07
3.10375e-07
-6.16467e-07
1.7466e-07
-6.43004e-07
5.15178e-08
-6.02232e-07
-5.28623e-08
-5.073e-07
-1.32778e-07
-3.69385e-07
-1.82703e-07
-1.9765e-07
-1.92076e-07
1.53013e-09
-1.41363e-07
2.13647e-07
4.13029e-07
5.84701e-07
-7.23475e-08
5.16761e-07
-2.69985e-07
4.15258e-07
-4.22758e-07
2.98348e-07
-5.11761e-07
1.80471e-07
-5.35165e-07
7.19536e-08
-5.04227e-07
-2.06904e-08
-4.24346e-07
-9.14156e-08
-3.08668e-07
-1.34172e-07
-1.63517e-07
-1.40441e-07
2.82933e-10
-9.98202e-08
1.65194e-07
3.09748e-07
5.31389e-07
-5.72398e-08
4.74293e-07
-2.18964e-07
3.88302e-07
-3.45874e-07
2.87589e-07
-4.25011e-07
1.83539e-07
-4.42112e-07
8.75199e-08
-4.2017e-07
4.27474e-09
-3.52326e-07
-5.88195e-08
-2.57767e-07
-9.67864e-08
-1.36712e-07
-1.02698e-07
-4.59053e-09
-7.14068e-08
1.24345e-07
2.26699e-07
4.88765e-07
-4.55324e-08
4.39738e-07
-1.77397e-07
3.64965e-07
-2.84599e-07
2.78609e-07
-3.45965e-07
1.84381e-07
-3.6138e-07
9.94002e-08
-3.42604e-07
2.31083e-08
-2.88359e-07
-3.3466e-08
-2.10422e-07
-6.84852e-08
-1.12387e-07
-7.49198e-08
-6.51581e-09
-5.23392e-08
9.24092e-08
1.69288e-07
4.54472e-07
-3.62949e-08
4.11044e-07
-1.41409e-07
3.46362e-07
-2.2622e-07
2.70342e-07
-2.86303e-07
1.8438e-07
-2.822e-07
1.0773e-07
-2.78666e-07
3.73775e-08
-2.26163e-07
-1.43145e-08
-1.70982e-07
-4.71811e-08
-8.93128e-08
-5.48033e-08
-9.48605e-09
-3.86807e-08
6.70601e-08
1.21742e-07
4.27031e-07
-2.82422e-08
3.88055e-07
-1.09231e-07
3.29023e-07
-1.81045e-07
2.65909e-07
-2.07969e-07
1.81488e-07
-2.28662e-07
1.15041e-07
-2.05693e-07
4.65109e-08
-1.81383e-07
5.335e-10
-1.27769e-07
-3.20341e-08
-7.27705e-08
-4.00961e-08
-8.16502e-09
-2.9387e-08
4.6476e-08
8.76908e-08
4.0525e-07
-2.10197e-08
3.68564e-07
-8.17593e-08
3.18234e-07
-1.25828e-07
2.57371e-07
-1.51327e-07
1.81927e-07
-1.65106e-07
1.16967e-07
-1.52347e-07
5.46871e-08
-1.32783e-07
9.81567e-09
-9.62797e-08
-2.05113e-08
-5.57471e-08
-3.0104e-08
-1.01676e-08
-2.26322e-08
2.87946e-08
5.78101e-08
3.879e-07
-1.62725e-08
3.54573e-07
-5.48426e-08
3.08165e-07
-7.87939e-08
2.50324e-07
-9.65135e-08
1.8055e-07
-1.13179e-07
1.17902e-07
-1.04443e-07
5.95061e-08
-9.4957e-08
1.61241e-08
-7.12456e-08
-1.28241e-08
-4.616e-08
-2.32964e-08
-1.63598e-08
-1.7998e-08
8.96315e-09
2.8486e-08
6.62703e-07
6.07961e-07
5.28989e-07
4.29259e-07
3.13638e-07
2.05543e-07
1.07412e-07
3.27258e-08
-1.63741e-08
-3.53363e-08
-2.8486e-08
-5.00784e-07
-1.05053e-06
-4.92904e-07
-3.43047e-07
-4.30356e-07
8.55065e-08
-3.4014e-07
4.0902e-07
-2.21952e-07
6.74245e-07
-7.27881e-08
8.93566e-07
1.09205e-07
1.05984e-06
3.22582e-07
1.15417e-06
5.57029e-07
1.14724e-06
7.85635e-07
1.00564e-06
9.62381e-07
7.07792e-07
2.68596e-07
-3.15927e-07
-7.30429e-07
-3.65552e-07
-2.90875e-07
-3.33094e-07
5.71984e-08
-2.60646e-07
3.42001e-07
-1.57362e-07
5.77282e-07
-2.5663e-08
7.67884e-07
1.33036e-07
9.06558e-07
3.14452e-07
9.77912e-07
5.07346e-07
9.58957e-07
6.88576e-07
8.28302e-07
8.23043e-07
5.74092e-07
2.17099e-07
-2.09519e-07
-5.21837e-07
-2.69027e-07
-2.31504e-07
-2.53456e-07
4.38954e-08
-1.95138e-07
2.86823e-07
-1.05336e-07
4.91941e-07
1.04653e-08
6.56199e-07
1.48789e-07
7.72418e-07
3.03482e-07
8.26673e-07
4.63934e-07
8.02762e-07
6.09902e-07
6.85085e-07
7.15353e-07
4.70263e-07
1.76134e-07
-1.43905e-07
-3.74394e-07
-1.97529e-07
-1.74041e-07
-1.90073e-07
4.03718e-08
-1.41987e-07
2.44183e-07
-6.37637e-08
4.18434e-07
3.82269e-08
5.58747e-07
1.58951e-07
6.54396e-07
2.91828e-07
6.96497e-07
4.26597e-07
6.69726e-07
5.46352e-07
5.67111e-07
6.30669e-07
3.85584e-07
1.44622e-07
-1.01258e-07
-2.71349e-07
-1.45269e-07
-1.29564e-07
-1.40353e-07
3.96041e-08
-9.98775e-08
2.05704e-07
-3.08384e-08
3.54098e-07
5.90831e-08
4.70718e-07
1.65368e-07
5.51423e-07
2.80108e-07
5.82401e-07
3.9513e-07
5.57671e-07
4.94737e-07
4.67929e-07
5.63993e-07
3.16756e-07
1.17539e-07
-7.27034e-08
-1.95529e-07
-1.06529e-07
-9.19896e-08
-1.02359e-07
3.92309e-08
-6.64287e-08
1.74482e-07
-5.47636e-09
2.96873e-07
7.50741e-08
3.93152e-07
1.68737e-07
4.58453e-07
2.69422e-07
4.82405e-07
3.68407e-07
4.58477e-07
4.53036e-07
3.83742e-07
5.10747e-07
2.57855e-07
9.64178e-08
-5.28346e-08
-1.4106e-07
-7.82192e-08
-6.51323e-08
-7.33239e-08
3.7077e-08
-4.06606e-08
1.44752e-07
1.38898e-08
2.44448e-07
8.66861e-08
3.22513e-07
1.70267e-07
3.75625e-07
2.59427e-07
3.93352e-07
3.46336e-07
3.72976e-07
4.19096e-07
3.10294e-07
4.6858e-07
2.0831e-07
7.67796e-08
-3.89258e-08
-9.96929e-08
-5.74192e-08
-4.47465e-08
-5.15863e-08
3.57134e-08
-2.10572e-08
1.16318e-07
2.83604e-08
1.99186e-07
9.50463e-08
2.55981e-07
1.7034e-07
3.00758e-07
2.50592e-07
3.11515e-07
3.27843e-07
2.9521e-07
3.91784e-07
2.45728e-07
4.34738e-07
1.64288e-07
6.06256e-08
-2.92782e-08
-7.09066e-08
-4.19636e-08
-2.86291e-08
-3.62162e-08
2.6677e-08
-5.86644e-09
9.39976e-08
3.7954e-08
1.49415e-07
1.01221e-07
2.00508e-07
1.69005e-07
2.28539e-07
2.42895e-07
2.40283e-07
3.12749e-07
2.25981e-07
3.69765e-07
1.87344e-07
4.07933e-07
1.24967e-07
4.56112e-08
-2.2134e-08
-4.72534e-08
-3.18237e-08
-1.90061e-08
-2.41553e-08
2.13681e-08
3.60784e-09
6.76724e-08
4.58666e-08
1.08669e-07
1.04038e-07
1.44202e-07
1.67785e-07
1.64603e-07
2.35873e-07
1.7217e-07
3.0029e-07
1.62143e-07
3.52215e-07
1.33337e-07
3.8679e-07
8.86489e-08
3.2455e-08
-1.75206e-08
-2.82286e-08
-2.47576e-08
-1.0254e-08
-1.62836e-08
1.48896e-08
1.01073e-08
4.4504e-08
5.06963e-08
6.92456e-08
1.05349e-07
9.22565e-08
1.65842e-07
1.03331e-07
2.29831e-07
1.08299e-07
2.90029e-07
1.01906e-07
3.38433e-07
8.2381e-08
3.70515e-07
5.43725e-08
1.92816e-08
-2.79529e-08
-3.78956e-08
-2.23871e-08
2.22636e-08
9.20548e-08
1.84165e-07
2.87494e-07
3.95846e-07
4.97304e-07
5.79286e-07
6.33342e-07
)
;

boundaryField
{
    rotor
    {
        type            calculated;
        value           uniform 0;
    }
    stator
    {
        type            calculated;
        value           uniform -0;
    }
    front
    {
        type            empty;
        value           nonuniform 0();
    }
    back
    {
        type            empty;
        value           nonuniform 0();
    }
    procBoundary0to1
    {
        type            processor;
        value           nonuniform List<scalar> 
20
(
-3.31505e-05
-2.32173e-05
-1.97651e-05
-1.84836e-05
-2.60654e-06
-1.97179e-06
-1.55309e-06
-1.26214e-06
-1.05098e-06
-8.93962e-07
-7.7397e-07
-6.81425e-07
-6.08597e-07
-5.51161e-07
-5.05263e-07
-4.68732e-07
-4.39613e-07
-4.16529e-07
-3.98637e-07
-6.81027e-07
)
;
    }
    procBoundary0to2
    {
        type            processor;
        value           nonuniform List<scalar> 
20
(
3.30205e-05
2.31466e-05
1.97196e-05
1.84502e-05
2.57922e-06
1.94785e-06
1.53108e-06
1.24096e-06
1.03017e-06
8.73252e-07
7.53369e-07
6.60844e-07
5.88088e-07
5.31049e-07
4.85492e-07
4.49674e-07
4.21118e-07
3.98935e-07
3.81753e-07
6.52031e-07
)
;
    }
}


// ************************************************************************* //
