/*--------------------------------*- C++ -*----------------------------------*\
  =========                 |
  \\      /  F ield         | OpenFOAM: The Open Source CFD Toolbox
   \\    /   O peration     | Website:  https://openfoam.org
    \\  /    A nd           | Version:  6
     \\/     M anipulation  |
\*---------------------------------------------------------------------------*/
FoamFile
{
    version     2.0;
    format      ascii;
    class       volVectorField;
    location    "500";
    object      U;
}
// * * * * * * * * * * * * * * * * * * * * * * * * * * * * * * * * * * * * * //

dimensions      [0 1 -1 0 0 0 0];

internalField   nonuniform List<vector> 
768
(
(0.0244939 -0.0192841 -7.25419e-22)
(0.0565905 -0.00759099 0)
(0.0601692 -0.0098439 -1.10119e-22)
(0.0584761 -0.012734 0)
(0.0563105 -0.0157618 5.38202e-19)
(0.0537565 -0.0187543 -5.38202e-19)
(0.0509365 -0.0215875 0)
(0.048028 -0.0243063 -1.80682e-18)
(0.0451241 -0.0268979 3.36427e-18)
(0.0423028 -0.0294487 -2.57663e-18)
(0.0395888 -0.0319737 -5.96034e-19)
(0.0369921 -0.034561 -6.50814e-19)
(0.028801 -0.00964649 -1.0177e-20)
(0.062662 -0.00540235 -6.41551e-20)
(0.0619722 -0.00812142 1.18228e-19)
(0.0589889 -0.0104828 0)
(0.0562003 -0.0130294 -5.14842e-19)
(0.0533014 -0.0157964 5.14842e-19)
(0.0502958 -0.0186068 0)
(0.0472372 -0.0214685 8.09408e-19)
(0.0441954 -0.0242961 -2.84396e-18)
(0.0411934 -0.0271443 1.92752e-18)
(0.0382654 -0.0299809 2.34039e-18)
(0.0353947 -0.0328735 -3.67043e-18)
(0.0334595 -0.000871164 4.3137e-21)
(0.0707023 -0.00167142 0)
(0.0683546 -0.00522105 -1.1558e-19)
(0.0640666 -0.00787374 0)
(0.0602543 -0.0106408 0)
(0.0565473 -0.0136371 -7.23094e-19)
(0.0528965 -0.0167538 2.93767e-18)
(0.0493066 -0.0199568 -2.42806e-18)
(0.045798 -0.023176 9.5384e-19)
(0.0423715 -0.0264206 0)
(0.0390274 -0.0296711 2.34292e-18)
(0.0357485 -0.0329623 -1.27506e-18)
(0.0367205 0.00730866 -6.02431e-21)
(0.0772996 0.00347756 2.75414e-20)
(0.0733883 -0.000739155 1.18963e-19)
(0.0679472 -0.0039163 4.64417e-19)
(0.0631479 -0.00712902 -4.64417e-19)
(0.0586167 -0.0105859 -6.47375e-19)
(0.0543283 -0.0140977 0)
(0.0502033 -0.0177321 0)
(0.0462835 -0.0213103 1.01359e-18)
(0.0424674 -0.0249478 0)
(0.0388057 -0.0285186 7.18404e-21)
(0.0351746 -0.0321591 1.31238e-18)
(0.0395 0.0161472 2.48802e-20)
(0.0830084 0.00970662 -3.46957e-21)
(0.0772314 0.0049187 -1.57991e-19)
(0.070627 0.00115479 0)
(0.064809 -0.00274096 0)
(0.0595445 -0.00671908 7.28504e-19)
(0.0546404 -0.0108364 0)
(0.0501186 -0.0148699 -1.98185e-18)
(0.0458161 -0.0189323 -1.24106e-18)
(0.0417659 -0.0228594 2.18908e-18)
(0.0378033 -0.0268067 -3.8253e-18)
(0.0339762 -0.0306587 2.58525e-18)
(0.0418848 0.0262855 -7.5924e-21)
(0.0877962 0.0171568 -3.84297e-20)
(0.0798407 0.0116155 1.59952e-19)
(0.0718696 0.00702162 -3.87925e-20)
(0.0651456 0.00230615 5.65861e-19)
(0.0591793 -0.00243926 -1.51931e-18)
(0.0538463 -0.00716627 1.85154e-18)
(0.0490085 -0.0117377 1.37608e-19)
(0.0445148 -0.0161944 0)
(0.0402965 -0.0204737 0)
(0.0362066 -0.024662 5.17532e-18)
(0.0322291 -0.0287383 1.82922e-19)
(0.0438283 0.0386193 -2.70861e-20)
(0.0914677 0.0261837 -1.01748e-19)
(0.08085 0.0195084 0)
(0.0715799 0.013536 -5.30374e-19)
(0.0639489 0.00773512 7.22693e-19)
(0.057483 0.00198205 2.45817e-18)
(0.0519311 -0.00339099 1.87675e-18)
(0.0469523 -0.00858001 6.47947e-20)
(0.0424681 -0.0133577 -4.55502e-18)
(0.03819 -0.0179907 2.30983e-18)
(0.0341473 -0.0223092 2.67727e-18)
(0.0300716 -0.0265636 8.78091e-20)
(0.04493 0.0541646 1.43824e-20)
(0.0934956 0.0374229 1.41261e-19)
(0.0798503 0.0286002 0)
(0.0692378 0.0207407 -6.70489e-19)
(0.0610823 0.0133029 -7.23598e-19)
(0.0544965 0.00648201 1.49819e-19)
(0.0489627 0.000228406 -3.70252e-18)
(0.0441583 -0.00543304 1.18869e-19)
(0.0397839 -0.0106514 6.01352e-20)
(0.0356954 -0.0154459 2.45345e-18)
(0.0317135 -0.0199591 -2.65392e-18)
(0.0277571 -0.024206 -7.53736e-20)
(0.0450014 0.0743846 -1.39909e-19)
(0.0930145 0.0512439 9.21497e-20)
(0.0760024 0.0389003 -8.81603e-19)
(0.0646345 0.0281958 6.68576e-19)
(0.0564668 0.0188339 0)
(0.0502231 0.0107092 0)
(0.0451277 0.00364871 2.04441e-18)
(0.0407192 -0.00254511 4.436e-18)
(0.0366978 -0.00806279 -2.23994e-18)
(0.0328859 -0.0130411 -2.44645e-18)
(0.0291314 -0.0176089 -2.59753e-18)
(0.0253256 -0.0218505 0)
(0.0428174 0.101097 -3.44842e-23)
(0.0885497 0.0677205 3.55255e-19)
(0.0683619 0.0496378 1.36401e-18)
(0.0571875 0.0352564 0)
(0.0500483 0.0237205 1.83046e-18)
(0.0448164 0.0143475 0)
(0.0405732 0.00657367 1.13401e-19)
(0.0368289 -3.12667e-05 -2.04471e-18)
(0.0333314 -0.0057616 2.46291e-18)
(0.0299206 -0.0108329 0)
(0.0264795 -0.0153937 0)
(0.0229104 -0.0195526 -5.47967e-18)
(0.0367696 0.137003 -3.45843e-19)
(0.0767922 0.0854189 3.84439e-19)
(0.0554362 0.0591066 1.16926e-19)
(0.0468967 0.0407168 -1.82676e-18)
(0.0420591 0.0272957 -8.39804e-19)
(0.0385654 0.0170138 -9.74254e-19)
(0.0355475 0.00878477 -2.1761e-18)
(0.0326813 0.00196491 -6.88877e-18)
(0.0298292 -0.00384536 -2.38708e-18)
(0.0269059 -0.00890894 -5.0072e-18)
(0.0238488 -0.0133883 5.22351e-18)
(0.0205786 -0.0173977 5.43055e-18)
(0.0220786 0.186784 5.28906e-19)
(0.0503129 0.098256 -1.79059e-19)
(0.0360311 0.0641811 1.14958e-19)
(0.0340788 0.0432236 1.80628e-18)
(0.0331414 0.0289868 0)
(0.0319453 0.0184553 -2.13541e-18)
(0.0303754 0.0101717 2.1517e-18)
(0.0284916 0.00338335 2.23034e-18)
(0.0263385 -0.00235781 -7.15553e-18)
(0.0239495 -0.00731074 4.95107e-18)
(0.021316 -0.0116409 -5.16495e-18)
(0.0183951 -0.0154443 0)
(0.0344903 -0.037221 2.23149e-18)
(0.0320535 -0.0400221 -6.10191e-18)
(0.0296329 -0.0429514 1.5284e-18)
(0.0271778 -0.0460396 4.5072e-18)
(0.0246317 -0.0492325 -4.56419e-18)
(0.0219452 -0.0525076 9.98688e-19)
(0.0190756 -0.0557481 6.88863e-20)
(0.0159986 -0.058839 -9.91222e-19)
(0.0126642 -0.0618595 -2.32378e-18)
(0.00940522 -0.0647155 0)
(0.00617857 -0.0619436 0)
(0.0147577 -0.0291546 -4.97037e-22)
(0.0325859 -0.0358079 -2.06e-19)
(0.0297989 -0.0388403 2.75563e-18)
(0.0270227 -0.0419516 8.24378e-21)
(0.0242142 -0.0451689 0)
(0.021364 -0.0484502 2.62213e-18)
(0.0184472 -0.0517811 0)
(0.0154789 -0.055082 1.98281e-18)
(0.0124764 -0.0582722 3.23031e-18)
(0.00946145 -0.0614152 -2.17299e-18)
(0.00637872 -0.0647197 0)
(0.00241746 -0.0651984 0)
(0.00296501 -0.0305261 -3.05714e-22)
(0.0325154 -0.0362976 1.48271e-18)
(0.0293023 -0.0397139 -1.3815e-18)
(0.0260861 -0.0432161 1.59167e-18)
(0.0228462 -0.0468262 0)
(0.0195721 -0.0505307 -1.81482e-18)
(0.0162702 -0.0543263 3.96644e-18)
(0.0129625 -0.0581694 -4.91553e-18)
(0.00970399 -0.0620045 -5.42691e-18)
(0.00652856 -0.0659245 3.38624e-18)
(0.00334406 -0.0702422 0)
(-0.000925109 -0.0722905 6.46491e-19)
(-0.0037882 -0.0344984 2.56138e-19)
(0.0316322 -0.0357838 1.41574e-18)
(0.028051 -0.0395243 -3.03032e-18)
(0.0244927 -0.0433241 3.34382e-18)
(0.0208538 -0.0472857 -3.34382e-18)
(0.0172031 -0.0513709 0)
(0.0134813 -0.0556388 1.93538e-18)
(0.00978507 -0.0600555 2.17252e-18)
(0.00612416 -0.0646173 1.24496e-18)
(0.00259107 -0.0694079 -2.29215e-18)
(-0.000939968 -0.0747869 0)
(-0.00560285 -0.0784546 -6.87434e-19)
(-0.0107558 -0.0375091 9.91351e-19)
(0.0301272 -0.0345808 2.97336e-18)
(0.0263043 -0.0384994 -1.43279e-18)
(0.0223891 -0.0425717 0)
(0.0184269 -0.0467568 0)
(0.0143425 -0.0511815 1.82891e-18)
(0.0101934 -0.0558357 -1.97401e-18)
(0.00597166 -0.0608082 4.06995e-20)
(0.00177184 -0.0660713 0)
(-0.00233641 -0.071789 -1.18465e-18)
(-0.00639181 -0.0783192 1.23696e-18)
(-0.0114475 -0.0839342 -1.33074e-18)
(-0.0188575 -0.0401946 -4.95262e-19)
(0.0282079 -0.0327965 -5.80655e-18)
(0.0241791 -0.036868 2.99484e-18)
(0.0199974 -0.0410391 6.62725e-18)
(0.0157195 -0.0453839 1.98486e-19)
(0.0112261 -0.049978 -9.05944e-18)
(0.00658165 -0.0549248 -3.8458e-18)
(0.00173341 -0.0603021 4.67679e-20)
(-0.00319322 -0.0662198 0)
(-0.00810471 -0.0728412 0)
(-0.0129219 -0.0807211 -1.25232e-18)
(-0.0186942 -0.0885968 -6.38504e-19)
(-0.0285602 -0.0424675 4.88449e-19)
(0.026042 -0.0306426 2.99775e-18)
(0.021825 -0.0347671 -6.06953e-18)
(0.0175128 -0.0389134 -3.27635e-18)
(0.012913 -0.0432625 1.20808e-19)
(0.00807463 -0.0478673 3.85584e-18)
(0.00286105 -0.0528996 4.0791e-18)
(-0.00268251 -0.058497 2.1036e-18)
(-0.00854486 -0.064877 2.20844e-18)
(-0.0145621 -0.0723664 -2.20844e-18)
(-0.0206757 -0.0815365 0)
(-0.0275394 -0.0921521 1.31473e-18)
(-0.040575 -0.044426 -4.59574e-19)
(0.0236939 -0.0283131 0)
(0.0194772 -0.0323237 3.07562e-18)
(0.0150075 -0.0363749 0)
(0.0102187 -0.0405465 -5.93713e-20)
(0.00499574 -0.0449892 -1.78107e-19)
(-0.000746319 -0.0498538 7.35373e-18)
(-0.00710104 -0.0553878 -7.88592e-18)
(-0.0140795 -0.0619075 0)
(-0.0216476 -0.0699006 -2.16548e-18)
(-0.0296309 -0.080447 1.21595e-18)
(-0.038581 -0.0940946 -1.86675e-18)
(-0.0557916 -0.0454282 1.30819e-18)
(0.0213653 -0.0258543 2.96173e-18)
(0.0171691 -0.029717 -2.96173e-18)
(0.0126539 -0.0335303 -3.16001e-18)
(0.00769131 -0.0374156 3.30111e-18)
(0.002171 -0.0414835 3.56316e-18)
(-0.00409767 -0.0459281 -1.08545e-17)
(-0.0112512 -0.0510076 3.87744e-18)
(-0.0195072 -0.0571733 0)
(-0.028973 -0.0651983 2.1593e-18)
(-0.0397545 -0.0764686 0)
(-0.0521514 -0.093567 1.79502e-18)
(-0.075648 -0.0455313 -1.61862e-18)
(0.0191162 -0.0234004 0)
(0.0150202 -0.0270291 -5.96611e-18)
(0.0105091 -0.0305333 -3.07201e-18)
(0.00546801 -0.0340015 -6.60399e-18)
(-0.00028255 -0.0375398 3.3234e-18)
(-0.00694425 -0.0412932 3.57888e-18)
(-0.0148132 -0.0455206 0)
(-0.0242803 -0.0506738 0)
(-0.0358886 -0.0576856 0)
(-0.0503058 -0.068829 0)
(-0.0684876 -0.0890671 -5.76629e-19)
(-0.102015 -0.0432522 4.77791e-20)
(0.0170168 -0.0210279 2.88917e-18)
(0.013077 -0.0243627 3.02346e-18)
(0.0086475 -0.0274903 1.22505e-17)
(0.00361072 -0.0304615 3.0758e-18)
(-0.00223194 -0.0333472 1.31312e-17)
(-0.00910685 -0.0362101 -3.35802e-18)
(-0.0174258 -0.039204 -3.49415e-18)
(-0.0277814 -0.0426352 0)
(-0.0412504 -0.04737 -3.73479e-18)
(-0.0597481 -0.0558964 -1.93447e-18)
(-0.0861064 -0.0772804 -1.00679e-18)
(-0.137645 -0.0371629 -4.16976e-26)
(0.0151155 -0.0188032 0)
(0.0113813 -0.0218009 0)
(0.00710144 -0.0245051 -1.19944e-17)
(0.00215388 -0.0269452 -9.39333e-18)
(-0.00362145 -0.0291186 -3.31159e-18)
(-0.0104809 -0.0309999 0)
(-0.0188389 -0.032544 3.45498e-18)
(-0.0294362 -0.0337056 0)
(-0.0437324 -0.0346015 1.67533e-19)
(-0.0648173 -0.036515 1.91279e-18)
(-0.0988476 -0.0508437 5.08755e-19)
(-0.187136 -0.0224554 1.15404e-18)
(-0.139992 0.129266 -4.63736e-19)
(-0.0153232 0.0897309 0)
(0.0115437 0.0606575 9.84524e-20)
(0.0208293 0.0417264 0)
(0.0243971 0.028554 0)
(0.0255384 0.0186314 2.10756e-18)
(0.0253893 0.0107463 0)
(0.0244507 0.00423122 4.57015e-18)
(0.0229825 -0.0012917 4.75325e-18)
(0.0211249 -0.00605231 4.98581e-18)
(0.0189329 -0.0101768 -2.61578e-18)
(0.016395 -0.013731 -2.70931e-18)
(-0.0824346 0.0569986 -2.90354e-19)
(-0.0293544 0.0618248 -2.52685e-19)
(-0.00204671 0.0494913 -4.8056e-19)
(0.0108565 0.0368558 0)
(0.0170428 0.0263556 -1.0875e-18)
(0.0198668 0.0177677 5.54913e-18)
(0.0208488 0.0106362 0)
(0.0207112 0.00459335 2.35737e-18)
(0.0198517 -0.000603105 -2.35737e-18)
(0.0184874 -0.00511385 -4.91336e-18)
(0.0167345 -0.00900603 -5.10076e-18)
(0.0146112 -0.012284 5.24771e-18)
(-0.0541493 0.0255285 -6.14902e-19)
(-0.0282612 0.040253 8.66959e-19)
(-0.00788583 0.0378942 -1.67028e-18)
(0.00447821 0.030832 1.10365e-18)
(0.011436 0.023235 0)
(0.0151574 0.0162415 -8.90159e-18)
(0.0168892 0.010038 0)
(0.0173566 0.00458429 4.6793e-18)
(0.0169884 -0.00022514 -2.37355e-18)
(0.0160563 -0.00446129 4.97482e-18)
(0.0147241 -0.00813095 2.53947e-18)
(0.0130441 -0.0111334 -5.17585e-18)
(-0.0382623 0.0133193 9.36503e-19)
(-0.0241653 0.0266908 1.1905e-18)
(-0.00980366 0.0285318 0)
(0.000640417 0.0251054 0)
(0.00738187 0.0199051 0)
(0.0113962 0.0144093 8.96662e-18)
(0.0135397 0.00915776 4.5853e-18)
(0.0144098 0.00432349 -6.91989e-18)
(0.0144075 -7.66856e-05 7.11726e-18)
(0.0138263 -0.00404999 -4.82654e-18)
(0.012881 -0.00754669 0)
(0.0116992 -0.0103289 5.08942e-18)
(0.0134409 -0.016768 -5.49856e-18)
(0.00995516 -0.0193916 -5.67137e-18)
(0.00587137 -0.021655 5.89111e-18)
(0.00109945 -0.0235648 -6.00724e-18)
(-0.00446904 -0.0250474 0)
(-0.0110614 -0.025981 -6.31857e-18)
(-0.0190187 -0.0261109 8.11022e-18)
(-0.029002 -0.0249517 -1.65222e-18)
(-0.0422436 -0.0213609 3.47941e-18)
(-0.0612468 -0.0121028 -8.56076e-19)
(-0.0904186 0.0146699 8.56076e-19)
(-0.129681 0.138843 -4.47059e-19)
(0.0120244 -0.0149558 5.41867e-18)
(0.00881065 -0.0171688 5.58896e-18)
(0.00494177 -0.0189964 0)
(0.000409444 -0.0204073 2.94072e-18)
(-0.00484904 -0.0212829 6.02832e-18)
(-0.0109675 -0.0214112 3.17768e-18)
(-0.0181741 -0.0204187 -1.2582e-17)
(-0.0268178 -0.0175893 -3.1484e-18)
(-0.0373765 -0.0114159 -3.16707e-18)
(-0.0501117 0.00149048 -7.93677e-19)
(-0.0625069 0.0287785 7.93677e-19)
(-0.0577808 0.0817005 3.58117e-19)
(0.0108924 -0.0133663 0)
(0.007947 -0.0151325 -8.22429e-18)
(0.00428769 -0.016541 2.76754e-18)
(1.80896e-05 -0.0175167 2.8133e-18)
(-0.00486139 -0.0178995 5.85352e-18)
(-0.0103927 -0.0174245 -2.95535e-18)
(-0.0166672 -0.0156838 7.64093e-18)
(-0.0237198 -0.0119641 7.62431e-18)
(-0.0313763 -0.00500332 1.6176e-18)
(-0.0385269 0.00735656 -1.52577e-18)
(-0.0409627 0.0277456 -3.57484e-19)
(-0.0263804 0.0536273 5.00114e-21)
(0.0101046 -0.0120026 0)
(0.00736647 -0.0132695 1.51425e-20)
(0.00386881 -0.0142843 0)
(-0.000148904 -0.0149077 -1.11879e-17)
(-0.0046195 -0.0149213 2.86761e-18)
(-0.00953161 -0.0140471 -8.60924e-18)
(-0.0148486 -0.0118967 0)
(-0.0204017 -0.00788639 -5.94536e-18)
(-0.0256586 -0.00115626 2.97489e-18)
(-0.0291588 0.00931748 -2.86763e-18)
(-0.0274049 0.0237277 -1.05148e-18)
(-0.0141427 0.0378487 -3.4332e-19)
(-0.0284915 0.00784278 -1.23711e-18)
(-0.0201215 0.0183513 -1.1697e-18)
(-0.00997755 0.0215295 0)
(-0.00151459 0.0202128 0)
(0.00453025 0.0167709 3.39917e-18)
(0.00845916 0.012531 -3.33056e-18)
(0.0107581 0.00815628 6.30534e-20)
(0.0118545 0.00391946 6.90117e-18)
(0.0120945 -7.7011e-05 -2.28909e-18)
(0.0117664 -0.00382048 2.41635e-18)
(0.011155 -0.00725098 -1.2193e-17)
(0.0105195 -0.00998833 0)
(-0.0220829 0.00504863 9.09836e-19)
(-0.016721 0.0130739 8.84418e-19)
(-0.00943673 0.0164341 -2.30942e-18)
(-0.00270546 0.0162487 -1.12392e-18)
(0.00253984 0.0140052 -3.31563e-18)
(0.00618805 0.0107621 0)
(0.00846784 0.00714253 -6.75531e-18)
(0.00965686 0.00346072 -2.31219e-18)
(0.0100251 -0.00015215 -4.6158e-18)
(0.00983596 -0.0036954 0)
(0.00943386 -0.00720884 9.59997e-18)
(0.0094353 -0.0103457 0)
(-0.0176558 0.00346128 6.02885e-19)
(-0.0140321 0.0096204 -2.3354e-18)
(-0.00866453 0.0127077 2.26663e-18)
(-0.00329821 0.013095 1.11926e-18)
(0.00115397 0.0116533 -2.2337e-18)
(0.00443761 0.00917509 1.11444e-18)
(0.00659282 0.00618825 0)
(0.00777884 0.00301008 2.2264e-18)
(0.00817559 -0.000230869 2.27046e-18)
(0.0079895 -0.00356585 2.33672e-18)
(0.00760153 -0.00729153 -1.17559e-17)
(0.00815751 -0.0119696 0)
(-0.014488 0.00248174 -1.1842e-18)
(-0.0119077 0.00726509 3.46628e-18)
(-0.00786906 0.00997113 0)
(-0.00358304 0.0106082 -4.47974e-18)
(0.000182728 0.00969375 0)
(0.00308281 0.00778951 -2.22236e-18)
(0.00506196 0.00533044 -2.21062e-18)
(0.00618225 0.00260246 1.11731e-17)
(0.00653781 -0.000260758 2.41094e-20)
(0.0062297 -0.0033058 -2.26285e-18)
(0.0054444 -0.00705539 9.24131e-18)
(0.00623818 -0.0159036 -9.35405e-18)
(0.0097663 -0.0108075 0)
(0.00706996 -0.0115159 -5.23724e-18)
(0.00363032 -0.0121948 0)
(-0.000163307 -0.012563 2.72641e-18)
(-0.00423026 -0.0123335 2.7481e-18)
(-0.00853898 -0.0112339 1.40309e-17)
(-0.0129758 -0.00893207 4.21609e-18)
(-0.0172671 -0.00500548 -1.41511e-18)
(-0.0207678 0.00104263 2.80085e-18)
(-0.0221496 0.00952332 5.41642e-20)
(-0.0190351 0.0197185 1.37044e-18)
(-0.00860777 0.0281456 0)
(0.0101379 -0.00971101 2.547e-18)
(0.00702573 -0.00977947 -5.13664e-18)
(0.00349494 -0.0102331 2.59792e-18)
(-9.83108e-05 -0.0104584 0)
(-0.00377856 -0.0101025 5.37398e-18)
(-0.00752425 -0.00891145 -5.47468e-18)
(-0.0111993 -0.00663204 -1.09619e-17)
(-0.0144886 -0.00298696 0)
(-0.0167806 0.00225254 -2.75024e-18)
(-0.0170205 0.00901479 3.92657e-20)
(-0.0137178 0.0163602 -3.23119e-19)
(-0.00574494 0.0217718 3.23119e-19)
(0.011763 -0.00841108 0)
(0.00710612 -0.0079165 -4.11868e-21)
(0.00336134 -0.00835858 -1.02573e-17)
(-2.30818e-05 -0.00857385 1.03816e-17)
(-0.00332474 -0.00818895 -5.27439e-18)
(-0.00656047 -0.0070046 -2.65365e-18)
(-0.00959381 -0.00485115 6.67164e-18)
(-0.0121149 -0.00157324 5.29416e-18)
(-0.0135989 0.00288351 1.32502e-18)
(-0.0132609 0.00826726 2.62463e-18)
(-0.0102108 0.0136857 0)
(-0.00408943 0.0173696 6.2015e-19)
(0.0157107 -0.0064817 -9.80172e-18)
(0.00687434 -0.00573847 7.42139e-18)
(0.00309826 -0.00656423 2.26123e-17)
(9.12206e-06 -0.00690153 -1.27381e-17)
(-0.00290701 -0.00655727 -7.67796e-18)
(-0.00568386 -0.00544147 -7.70187e-18)
(-0.00818247 -0.00346705 -2.58233e-18)
(-0.010123 -0.000574207 -5.19003e-18)
(-0.0110734 0.00318557 0)
(-0.0104725 0.00749464 6.27846e-19)
(-0.00780221 0.0115836 -6.27846e-19)
(-0.00304294 0.014212 -1.21535e-18)
(-0.0121478 0.00184031 -8.28569e-22)
(-0.010251 0.00561243 -2.27136e-18)
(-0.00713558 0.0079173 0)
(-0.00366944 0.00864483 3.29501e-18)
(-0.000501775 0.00807745 5.49303e-18)
(0.00203273 0.00660465 2.16388e-18)
(0.00381705 0.00458177 2.1843e-18)
(0.00484084 0.0022567 -8.76339e-18)
(0.00512569 -0.000220924 0)
(0.0046273 -0.0028247 -6.69117e-18)
(0.00283038 -0.00553306 6.77743e-18)
(-0.00378103 -0.00862972 1.0286e-17)
(-0.0103837 0.00140003 1.14249e-18)
(-0.00893751 0.0044125 0)
(-0.00649322 0.00636613 4.42227e-18)
(-0.00366933 0.00709223 0)
(-0.000991279 0.00674614 2.7275e-20)
(0.00121413 0.00560156 8.64051e-18)
(0.00280546 0.00393585 2.15877e-18)
(0.00372879 0.00197061 -1.08223e-17)
(0.00395521 -0.000135551 0)
(0.00338913 -0.00227793 6.56452e-18)
(0.00159969 -0.00421729 -6.64911e-18)
(-0.00250676 -0.00555565 0)
(-0.00902641 0.00108756 -5.60449e-19)
(-0.00790243 0.00352288 2.20789e-18)
(-0.00594202 0.00516592 -4.33646e-18)
(-0.00360955 0.00585394 5.37644e-18)
(-0.00134309 0.0056509 -2.11268e-18)
(0.000575067 0.00475685 -5.28576e-18)
(0.00198813 0.00338435 -1.27529e-17)
(0.00282011 0.00173502 1.06203e-17)
(0.00301416 -3.27155e-05 0)
(0.00247967 -0.00176084 -6.44055e-18)
(0.000969242 -0.00315237 -2.15576e-18)
(-0.00178096 -0.00380651 0)
(-0.00797048 0.000859773 -2.73002e-19)
(-0.0070718 0.00284673 -2.4302e-18)
(-0.00547791 0.00423464 5.38253e-19)
(-0.00353598 0.00485837 1.62846e-20)
(-0.00159988 0.00474674 -4.19066e-18)
(7.19744e-05 0.00404206 0)
(0.00132853 0.0029126 1.04293e-17)
(0.00208226 0.00153383 -2.08988e-18)
(0.00226812 6.44966e-05 0)
(0.00181834 -0.0013213 1.68581e-17)
(0.000620355 -0.00233195 0)
(-0.00128448 -0.00267133 0)
(-0.00713773 0.00069105 -1.07961e-18)
(-0.00640881 0.00232417 0)
(-0.00508845 0.00349349 3.16417e-18)
(-0.00344939 0.00405325 -4.14729e-18)
(-0.00178858 0.0039962 6.08412e-21)
(-0.000323408 0.00343841 9.27163e-18)
(0.000798551 0.00250737 -2.05427e-18)
(0.00148927 0.00135998 -6.17166e-18)
(0.00168322 0.000144845 2.06285e-18)
(0.00133498 -0.000964488 -8.25809e-18)
(0.000419206 -0.00171749 -4.14564e-18)
(-0.000924932 -0.00190321 2.27417e-18)
(-0.00647733 0.000563542 1.05866e-18)
(-0.00587202 0.00191357 0)
(-0.00476371 0.00290431 -4.1286e-18)
(-0.00336917 0.00340114 1.01977e-18)
(-0.00193233 0.0033634 -1.01977e-18)
(-0.000635785 0.00292568 -1.01014e-17)
(0.000370173 0.0021509 8.08345e-18)
(0.00101433 0.00120374 1.00846e-17)
(0.00122297 0.000199496 0)
(0.000978567 -0.000688317 2.02876e-18)
(0.000293521 -0.00125905 -2.02876e-18)
(-0.000668986 -0.00136782 0)
(-0.00594936 0.000465164 2.58116e-19)
(-0.00543917 0.00158584 -2.31148e-18)
(-0.00449064 0.00242678 0)
(-0.00329683 0.00285782 0)
(-0.00204184 0.00283422 0)
(-0.000883746 0.00248344 -1.98555e-18)
(2.81611e-05 0.00184237 -5.93934e-18)
(0.000636805 0.00105961 -7.93148e-18)
(0.000865591 0.000234135 1.98529e-18)
(0.000715505 -0.000478017 3.64432e-21)
(0.000217032 -0.000918274 -1.7912e-17)
(-0.000474478 -0.000984618 -1.73056e-17)
(-0.00552683 0.000389847 1.019e-18)
(-0.00508569 0.00132075 2.51495e-18)
(-0.00426851 0.00203074 -5.01072e-19)
(-0.00323404 0.00241737 9.84683e-19)
(-0.00213136 0.00236825 5.89159e-18)
(-0.00107898 0.0021065 6.84615e-18)
(-0.000249198 0.00155861 -7.79107e-18)
(0.000338139 0.000926024 1.75118e-17)
(0.00058522 0.000242714 0)
(0.000520319 -0.000323926 0)
(0.000166857 -0.000666164 1.36642e-17)
(-0.00033319 -0.000708328 2.12212e-18)
(-0.00518939 0.000329824 -9.99527e-19)
(-0.00480363 0.00109891 -4.91914e-19)
(-0.00407804 0.00169965 4.91914e-19)
(-0.00319513 0.0020092 0)
(-0.00219946 0.0019924 -1.54193e-17)
(-0.00123972 0.00175466 -9.58366e-18)
(-0.000465047 0.00132118 7.64992e-18)
(0.000101209 0.000787852 -7.63617e-18)
(0.000372289 0.000240943 1.91011e-18)
(0.000376545 -0.000217181 1.91274e-18)
(0.000137277 -0.000479269 -1.91274e-18)
(-0.000222584 -0.00050503 1.6507e-17)
(-0.00492182 0.000279587 -9.80816e-19)
(-0.0045732 0.000913061 0)
(-0.003943 0.00140271 -3.84547e-18)
(-0.00316475 0.00162904 9.49751e-19)
(-0.00224549 0.0016733 5.67398e-18)
(-0.00137332 0.00143994 -9.36574e-19)
(-0.00062524 0.00111441 -3.75615e-18)
(-8.67273e-05 0.000658353 1.31267e-17)
(0.000217472 0.000228256 -1.31228e-17)
(0.00027173 -0.000141931 1.28626e-21)
(0.000124799 -0.000338905 -1.8763e-18)
(-0.000137835 -0.000352733 0)
(-0.00471194 0.000230514 7.22998e-19)
(-0.00440346 0.000718728 -3.09714e-18)
(-0.00385174 0.00106961 7.07375e-18)
(-0.00314439 0.00126425 0)
(-0.00230539 0.00130176 -9.27058e-19)
(-0.00148763 0.00112865 9.27058e-19)
(-0.000775163 0.000867125 5.52994e-18)
(-0.000237551 0.000517743 -2.76046e-17)
(9.26077e-05 0.000186402 1.47157e-17)
(0.000205417 -8.52334e-05 0)
(0.000135768 -0.000219204 0)
(-4.3038e-05 -0.000209166 0)
(-0.0080527 0.000308605 3.32573e-18)
(-0.00756862 0.000899096 6.58356e-18)
(-0.00669156 0.00132738 -1.30438e-17)
(-0.00553564 0.00156636 1.61168e-18)
(-0.00417194 0.00159476 -3.21392e-18)
(-0.00281171 0.0013686 -7.99251e-18)
(-0.00160053 0.00101514 -6.37462e-18)
(-0.000647873 0.000570744 3.18051e-18)
(-1.56251e-05 0.000160575 -2.22522e-17)
(0.000278342 -0.000143976 -3.17936e-18)
(0.000272101 -0.000255739 0)
(7.69665e-05 -0.000182612 -2.86882e-17)
(0.00842888 0.00354459 1.07783e-17)
(0.00535075 -0.0030965 9.76392e-18)
(0.00262345 -0.00493213 -9.85886e-18)
(-2.1292e-05 -0.00545479 -1.24244e-17)
(-0.00254428 -0.00518239 1.25289e-17)
(-0.00490901 -0.0041649 1.26034e-17)
(-0.00696601 -0.00238846 -1.25841e-18)
(-0.0084681 0.000137359 -2.50948e-18)
(-0.0090689 0.00330232 1.252e-18)
(-0.00837366 0.00677901 0)
(-0.00608993 0.00993447 0)
(-0.00233678 0.01188 1.11572e-21)
(0.00536543 0.00228943 0)
(0.00404323 -0.00183699 1.73486e-20)
(0.00208418 -0.00366125 0)
(-9.28578e-05 -0.00425094 9.73864e-18)
(-0.0022357 -0.0040376 -2.44903e-18)
(-0.00423355 -0.00312328 4.90272e-18)
(-0.00592572 -0.00154223 -1.34725e-17)
(-0.00709562 0.000652081 1.22548e-18)
(-0.00746742 0.00331967 0)
(-0.00676643 0.00615233 -4.80064e-18)
(-0.00483426 0.00863346 0)
(-0.00183445 0.0101187 1.1646e-18)
(0.00362355 0.00158458 0)
(0.0029855 -0.00117989 -1.17671e-17)
(0.00158017 -0.00272264 2.36041e-18)
(-0.000177165 -0.00327827 0)
(-0.00197348 -0.00309816 9.548e-18)
(-0.00364904 -0.00227801 2.39514e-18)
(-0.00504109 -0.000876824 8.40371e-18)
(-0.00595677 0.00102751 -7.14971e-18)
(-0.00617952 0.00328504 1.1898e-18)
(-0.0055163 0.00561659 9.3956e-18)
(-0.00388772 0.00760354 2.31439e-18)
(-0.00146416 0.00876519 -5.70593e-19)
(0.00250386 0.00110572 -1.01556e-17)
(0.00217774 -0.000807989 0)
(0.00115566 -0.00203165 0)
(-0.000254528 -0.00250338 1.16496e-17)
(-0.00174466 -0.0023317 -1.16962e-17)
(-0.00314372 -0.00159254 2.33982e-18)
(-0.00428619 -0.000349691 -2.33982e-18)
(-0.00500797 0.00130595 4.6717e-18)
(-0.00513234 0.00322748 4.62407e-18)
(-0.00452847 0.0051664 -1.50272e-20)
(-0.00315818 0.00678204 -2.26937e-18)
(-0.001182 0.00771103 5.58397e-19)
(0.00175051 0.000769555 9.90737e-18)
(0.00157634 -0.000583152 0)
(0.000815068 -0.00152328 2.27864e-18)
(-0.000311578 -0.00189031 -2.05374e-17)
(-0.00154289 -0.00171359 0)
(-0.00270246 -0.0010385 -1.14324e-17)
(-0.00364228 6.74174e-05 1.25595e-17)
(-0.00421095 0.00151448 -1.02378e-17)
(-0.00427412 0.00316162 -3.40756e-18)
(-0.00373489 0.00479238 -1.01005e-17)
(-0.00258337 0.00612576 0)
(-0.000961586 0.00688155 -1.0947e-18)
(0.00123406 0.000532595 2.42426e-18)
(0.00113401 -0.000435486 -1.11255e-17)
(0.00055492 -0.00114353 0)
(-0.000344083 -0.00140598 8.0629e-21)
(-0.00135929 -0.00121553 0)
(-0.00231403 -0.000590232 2.25577e-18)
(-0.0030878 0.000400166 -1.11915e-17)
(-0.00353613 0.00167331 7.81041e-18)
(-0.00356161 0.00309737 5.53185e-18)
(-0.00308887 0.0044831 4.39416e-18)
(-0.00212243 0.00559896 -2.17018e-18)
(-0.000786464 0.00622549 5.36548e-19)
(0.000871383 0.000364184 0)
(0.00080957 -0.000335527 2.61966e-17)
(0.000365229 -0.000856371 1.96832e-17)
(-0.00035486 -0.00102564 6.57752e-18)
(-0.00118512 -0.000815507 0)
(-0.00197042 -0.000230585 1.09661e-17)
(-0.00260454 0.000666256 -1.09819e-18)
(-0.00296124 0.00179464 -5.45987e-21)
(-0.00296295 0.00303947 -5.42251e-18)
(-0.00255582 0.00423063 0)
(-0.00174662 0.0051773 2.33143e-21)
(-0.000644554 0.00570373 1.55773e-26)
(0.000614463 0.000243184 -1.85112e-17)
(0.000577531 -0.000261718 -3.64084e-17)
(0.000228836 -0.000640261 -1.50148e-17)
(-0.000338153 -0.000723295 -1.71731e-17)
(-0.00102376 -0.000497551 0)
(-0.00165618 6.21115e-05 2.14439e-18)
(-0.00218378 0.00087865 -3.21321e-18)
(-0.00246207 0.00189114 5.34851e-21)
(-0.0024558 0.00298942 1.06347e-18)
(-0.00210934 0.0040259 0)
(-0.0014364 0.00483931 2.08501e-18)
(-0.000525765 0.00528961 1.03082e-18)
(0.000433312 0.00015634 -6.10255e-21)
(0.000407601 -0.000209769 1.68073e-17)
(0.000146437 -0.000471873 0)
(-0.000310818 -0.000490471 2.11276e-18)
(-0.000856528 -0.000239624 -8.15428e-22)
(-0.00137896 0.000291537 -8.41389e-18)
(-0.0018045 0.00105241 7.33541e-18)
(-0.00203138 0.00196518 -9.40173e-18)
(-0.00202009 0.00295065 0)
(-0.00173053 0.00386285 -4.12134e-18)
(-0.0011738 0.00457094 0)
(-0.000427196 0.00496063 -2.022e-18)
(0.000301823 9.43909e-05 1.76887e-17)
(0.000290918 -0.000173794 -2.06232e-18)
(0.000101179 -0.000340507 2.06304e-17)
(-0.000266491 -0.000310823 1.44544e-17)
(-0.000689888 -3.23219e-05 -1.44468e-17)
(-0.0011295 0.000475205 8.24703e-18)
(-0.00146352 0.00119097 -2.06586e-18)
(-0.00165645 0.00202724 7.17525e-18)
(-0.00164344 0.0029185 1.02102e-18)
(-0.0014022 0.00373464 7.58068e-18)
(-0.000948254 0.00435997 -1.49956e-18)
(-0.000342865 0.00470341 9.91708e-19)
(0.000188435 2.76771e-05 0)
(0.00020626 -0.000154148 0)
(8.22933e-05 -0.000243828 -1.61939e-17)
(-0.000178722 -0.000154754 0)
(-0.00049952 0.000146469 1.82225e-17)
(-0.00083568 0.000648763 -2.02154e-17)
(-0.00109722 0.00132478 -5.04347e-18)
(-0.0012498 0.00210055 7.02504e-18)
(-0.00124548 0.00291089 0)
(-0.00105959 0.00364505 -1.55859e-21)
(-0.000714923 0.00420181 5.89351e-18)
(-0.000256279 0.00450547 0)
(0.000179806 -7.4953e-05 -2.75529e-17)
(0.000266081 -0.000279579 -3.49515e-17)
(0.000176936 -0.00031797 3.49608e-18)
(-0.000104945 -6.61313e-05 0)
(-0.000493337 0.000513677 -3.49471e-18)
(-0.000917954 0.0014027 3.4925e-17)
(-0.00126598 0.00254582 -3.48769e-18)
(-0.00147852 0.00383396 -1.56049e-17)
(-0.00149305 0.00515186 1.72917e-18)
(-0.0012784 0.00633277 -6.84682e-18)
(-0.00086372 0.00722238 -1.35748e-17)
(-0.000306057 0.00770263 1.68069e-18)
)
;

boundaryField
{
    rotor
    {
        type            fixedValue;
        value           nonuniform List<vector> 
48
(
(0.201784 -0.00660572 0)
(0.20092 -0.0197889 0)
(0.199195 -0.0328873 0)
(0.196618 -0.0458448 0)
(0.193198 -0.0586061 0)
(0.188952 -0.0711164 0)
(0.183896 -0.0833222 0)
(0.178053 -0.0951712 0)
(0.171447 -0.106613 0)
(0.164107 -0.117597 0)
(0.156065 -0.128079 0)
(0.147354 -0.138012 0)
(0.138012 -0.147354 0)
(0.128079 -0.156065 0)
(0.117597 -0.164107 0)
(0.106613 -0.171447 0)
(0.0951712 -0.178053 0)
(0.0833222 -0.183896 0)
(0.0711164 -0.188952 0)
(0.0586061 -0.193198 0)
(0.0458448 -0.196618 0)
(0.0328873 -0.199195 0)
(0.0197889 -0.20092 0)
(0.00660572 -0.201784 0)
(0.214625 3.8523e-10 -0)
(0.239875 4.30551e-10 -0)
(0.265125 4.75872e-10 -0)
(0.290375 5.21193e-10 -0)
(0.315625 5.66514e-10 -0)
(0.340875 6.11835e-10 -0)
(0.366125 6.57157e-10 -0)
(0.391375 7.02478e-10 -0)
(0.416625 7.47799e-10 -0)
(0.441875 7.9312e-10 -0)
(0.467125 8.38441e-10 -0)
(0.492375 8.83762e-10 -0)
(-7.70459e-10 -0.214625 0)
(-8.61102e-10 -0.239875 0)
(-9.51744e-10 -0.265125 0)
(-1.04239e-09 -0.290375 0)
(-1.13303e-09 -0.315625 0)
(-1.22367e-09 -0.340875 0)
(-1.31431e-09 -0.366125 0)
(-1.40496e-09 -0.391375 0)
(-1.4956e-09 -0.416625 0)
(-1.58624e-09 -0.441875 0)
(-1.67688e-09 -0.467125 0)
(-1.76752e-09 -0.492375 0)
)
;
    }
    stator
    {
        type            noSlip;
    }
    front
    {
        type            empty;
    }
    back
    {
        type            empty;
    }
    procBoundary0to1
    {
        type            processor;
        value           nonuniform List<vector> 
20
(
(-0.139842 -0.130809 -8.65203e-19)
(-0.0823426 -0.0584609 -9.98253e-27)
(-0.054084 -0.0268604 -3.44072e-19)
(-0.0381994 -0.0145372 -3.28941e-19)
(-0.0284376 -0.00895335 -6.44838e-19)
(-0.0220315 -0.00605871 1.60067e-18)
(-0.0176106 -0.00437493 9.26454e-19)
(-0.014446 -0.00330449 -2.74131e-18)
(-0.0121103 -0.00257593 1.19182e-18)
(-0.0103503 -0.00205254 5.82238e-19)
(-0.00899668 -0.00166123 -8.58537e-19)
(-0.00794431 -0.00135797 0)
(-0.00711386 -0.00111891 -1.37006e-18)
(-0.00645469 -0.000923909 -2.69204e-19)
(-0.00592661 -0.000763949 1.05182e-18)
(-0.00550312 -0.000624988 -1.28979e-18)
(-0.00516435 -0.000507576 1.01096e-18)
(-0.00489444 -0.000404286 0)
(-0.00469016 -0.000291344 0)
(-0.00802651 -0.000328395 1.68017e-18)
)
;
    }
    procBoundary0to2
    {
        type            processor;
        value           nonuniform List<vector> 
20
(
(0.128768 0.138913 -4.6276e-19)
(0.0569566 0.0817049 5.99632e-19)
(0.0256668 0.0536176 -3.04939e-19)
(0.0135328 0.0378346 -1.25227e-18)
(0.00808579 0.0281319 1.2304e-18)
(0.00529909 0.0217599 -2.99882e-19)
(0.00370886 0.0173568 1.20475e-18)
(0.00272166 0.0142001 -2.3667e-18)
(0.00206627 0.0118677 5.80051e-19)
(0.00160815 0.0101073 5.70744e-19)
(0.00127596 0.00875347 -5.60893e-19)