/*--------------------------------*- C++ -*----------------------------------*\
  =========                 |
  \\      /  F ield         | OpenFOAM: The Open Source CFD Toolbox
   \\    /   O peration     | Website:  https://openfoam.org
    \\  /    A nd           | Version:  6
     \\/     M anipulation  |
\*---------------------------------------------------------------------------*/
FoamFile
{
    version     2.0;
    format      ascii;
    class       volScalarField;
    location    "1500";
    object      k;
}
// * * * * * * * * * * * * * * * * * * * * * * * * * * * * * * * * * * * * * //

dimensions      [0 2 -2 0 0 0 0];

internalField   nonuniform List<scalar> 
768
(
0.409943
0.563566
0.609162
0.644421
0.64367
0.65746
0.649594
0.656076
0.634286
0.640387
0.656537
0.671115
0.477394
0.772987
0.902388
0.943737
0.955551
0.961191
0.962421
0.963842
0.962669
0.96327
0.963606
0.964732
0.471678
0.81631
0.939873
0.97132
0.980081
0.982976
0.983832
0.984175
0.984122
0.984174
0.984138
0.984175
0.465194
0.828988
0.948188
0.975468
0.982931
0.985305
0.986
0.986238
0.986269
0.98631
0.986249
0.986211
0.477704
0.839725
0.952807
0.976843
0.983309
0.985291
0.985818
0.985977
0.98595
0.985934
0.985899
0.985927
0.487036
0.850221
0.956961
0.977722
0.983184
0.984681
0.985108
0.985096
0.985109
0.985041
0.985098
0.985019
0.504827
0.865135
0.961799
0.978871
0.982922
0.984087
0.98424
0.984317
0.984194
0.984196
0.984012
0.983966
0.504852
0.879127
0.967512
0.980059
0.982755
0.983407
0.983451
0.983353
0.983216
0.983104
0.983076
0.982953
0.526834
0.89379
0.973847
0.981527
0.98261
0.982783
0.982609
0.98241
0.982352
0.982261
0.982147
0.982083
0.51894
0.895937
0.979015
0.982876
0.982477
0.982113
0.981723
0.981435
0.981398
0.981291
0.981182
0.981116
0.538168
0.900684
0.983372
0.983973
0.982312
0.981486
0.980794
0.980458
0.980425
0.980207
0.980119
0.980155
0.712237
0.947916
0.987994
0.984362
0.981759
0.980567
0.979704
0.979414
0.9793
0.979134
0.979111
0.979202
0.66107
0.66172
0.641955
0.635142
0.6482
0.663124
0.649071
0.638714
0.618973
0.580743
0.513284
0.391731
0.964011
0.964281
0.963365
0.963802
0.96479
0.966461
0.96638
0.964302
0.952514
0.905373
0.739542
0.453077
0.984036
0.984015
0.983902
0.983948
0.984029
0.984223
0.984223
0.983458
0.978691
0.953678
0.835108
0.474766
0.986162
0.98615
0.986104
0.986139
0.986152
0.9862
0.986186
0.985716
0.982472
0.963611
0.85882
0.48545
0.985923
0.985921
0.985861
0.985862
0.985882
0.9859
0.985925
0.985649
0.983185
0.967353
0.869476
0.492961
0.985031
0.984972
0.984944
0.984866
0.984928
0.984923
0.984981
0.984833
0.982991
0.970024
0.880658
0.489931
0.983893
0.98396
0.983869
0.983883
0.983793
0.983843
0.983897
0.984001
0.983032
0.973006
0.889812
0.501559
0.982894
0.982874
0.982794
0.982728
0.982792
0.982892
0.983128
0.983432
0.983116
0.976711
0.905348
0.517554
0.982
0.981928
0.9819
0.981825
0.981839
0.982065
0.982301
0.982777
0.983678
0.980401
0.916711
0.545718
0.980933
0.980805
0.980821
0.980845
0.98095
0.981225
0.98161
0.982406
0.983931
0.984787
0.935301
0.56596
0.98003
0.979919
0.979996
0.979969
0.980032
0.98035
0.980844
0.981822
0.984328
0.988878
0.958914
0.605176
0.979092
0.979017
0.979094
0.979074
0.979252
0.979586
0.980041
0.981104
0.984011
0.994252
1.01749
0.688167
0.969664
1.0025
0.992003
0.9838
0.980702
0.979561
0.978849
0.978527
0.978443
0.978323
0.978465
0.978349
1.01104
0.998717
0.987444
0.981685
0.97945
0.978464
0.977923
0.97771
0.977687
0.97759
0.977717
0.977589
0.997501
0.989023
0.982578
0.979516
0.978283
0.977573
0.977162
0.97705
0.977117
0.977107
0.977032
0.977013
0.986025
0.982202
0.97923
0.977759
0.977011
0.976739
0.97642
0.976399
0.976617
0.976375
0.976283
0.976305
0.978285
0.978326
0.978411
0.978523
0.978607
0.978837
0.979203
0.980155
0.982923
0.992461
1.02522
0.934786
0.977548
0.977571
0.9776
0.97789
0.977999
0.978086
0.978393
0.979099
0.980862
0.986626
1.00436
1.0237
0.977029
0.976962
0.977048
0.977278
0.977327
0.977381
0.97778
0.978208
0.979137
0.981852
0.98936
1.00038
0.9761
0.976148
0.976244
0.976436
0.976523
0.976566
0.976854
0.9771
0.97766
0.979025
0.98186
0.986176
0.980127
0.978257
0.976949
0.976263
0.975908
0.975734
0.975576
0.975555
0.975601
0.975495
0.975154
0.974083
0.977291
0.976193
0.975557
0.975228
0.975068
0.974966
0.974896
0.974881
0.974884
0.97466
0.973038
0.967966
0.975793
0.974993
0.974644
0.974486
0.974418
0.974364
0.974339
0.974334
0.974283
0.973425
0.967407
0.946951
0.97487
0.974195
0.97397
0.973902
0.973866
0.973837
0.973831
0.973825
0.973637
0.97129
0.954067
0.876278
0.973902
0.97486
0.975338
0.975515
0.975601
0.975726
0.975901
0.976057
0.976348
0.976964
0.978146
0.979793
0.967267
0.972243
0.974304
0.974818
0.974947
0.975062
0.975149
0.975251
0.975378
0.97566
0.976114
0.976767
0.944979
0.965578
0.97259
0.974092
0.974365
0.974462
0.974511
0.974577
0.974629
0.974725
0.974913
0.975219
0.86963
0.950891
0.969849
0.973284
0.973834
0.973941
0.97398
0.974024
0.974036
0.974056
0.974107
0.974287
0.974241
0.973611
0.973452
0.973415
0.973402
0.973384
0.973388
0.973372
0.972987
0.968612
0.930719
0.652143
0.973719
0.973141
0.973018
0.972991
0.972984
0.972971
0.972974
0.97295
0.972455
0.966963
0.917177
0.547153
0.973307
0.972733
0.972627
0.972611
0.972611
0.972604
0.972608
0.972584
0.972069
0.966379
0.914571
0.535706
0.972914
0.972377
0.972278
0.972271
0.972268
0.972259
0.972262
0.97224
0.971762
0.966342
0.916087
0.539494
0.972587
0.972039
0.97196
0.971951
0.971952
0.971944
0.971947
0.971931
0.9715
0.966497
0.918763
0.543931
0.972172
0.971649
0.971569
0.971563
0.971565
0.971557
0.971559
0.971541
0.971167
0.966593
0.921462
0.549822
0.971195
0.970605
0.970495
0.970504
0.970498
0.970507
0.970498
0.970492
0.970153
0.965928
0.923058
0.555397
0.967062
0.966227
0.966052
0.966059
0.96604
0.966057
0.96604
0.966042
0.965723
0.961622
0.91988
0.558854
0.95118
0.949825
0.949364
0.949495
0.949293
0.949446
0.949312
0.949426
0.949021
0.944696
0.901499
0.552758
0.899491
0.896918
0.896282
0.896217
0.895984
0.896039
0.895963
0.896026
0.895679
0.890899
0.84398
0.520442
0.742329
0.738054
0.736994
0.736526
0.736127
0.735866
0.735696
0.73558
0.735349
0.731158
0.686548
0.44132
0.359822
0.358791
0.357945
0.356873
0.355751
0.35457
0.353468
0.352435
0.351701
0.350393
0.337342
0.268339
0.646648
0.928105
0.966704
0.972484
0.97333
0.973459
0.973491
0.973524
0.973519
0.973498
0.973514
0.973643
0.550391
0.91459
0.964739
0.971884
0.972897
0.973045
0.973073
0.973094
0.973074
0.973042
0.973027
0.973137
0.539423
0.91146
0.964063
0.971474
0.972509
0.972651
0.972685
0.972691
0.972676
0.972632
0.97262
0.972717
0.541838
0.912526
0.964067
0.971201
0.972172
0.972303
0.97233
0.972334
0.972312
0.972288
0.972257
0.972347
0.546533
0.914948
0.964333
0.970978
0.971857
0.971964
0.971994
0.971989
0.971982
0.971929
0.971921
0.972008
0.551657
0.917568
0.96457
0.970702
0.971479
0.971575
0.971587
0.971597
0.971573
0.971554
0.971521
0.971607
0.557485
0.919254
0.964034
0.969732
0.970425
0.970519
0.970519
0.97054
0.970509
0.9705
0.970472
0.970543
0.561358
0.916406
0.959851
0.965352
0.966003
0.96611
0.966098
0.966134
0.966092
0.96611
0.966067
0.966136
0.555466
0.898769
0.942953
0.948778
0.949367
0.949615
0.949508
0.94967
0.949519
0.949654
0.94952
0.949613
0.523579
0.842275
0.88933
0.895553
0.896267
0.896548
0.896533
0.896676
0.896603
0.896705
0.896614
0.896605
0.443666
0.68661
0.73014
0.735688
0.736461
0.736907
0.737045
0.737246
0.737302
0.737509
0.737512
0.737165
0.269228
0.337796
0.350242
0.35155
0.351905
0.352477
0.353327
0.353924
0.355192
0.355533
0.355352
0.355712
)
;

boundaryField
{
    rotor
    {
        type            kqRWallFunction;
        value           nonuniform List<scalar> 
48
(
0.409943
0.563566
0.609162
0.644421
0.64367
0.65746
0.649594
0.656076
0.634286
0.640387
0.656537
0.671115
0.66107
0.66172
0.641955
0.635142
0.6482
0.663124
0.649071
0.638714
0.618973
0.580743
0.513284
0.391731
0.409943
0.477394
0.471678
0.465194
0.477704
0.487036
0.504827
0.504852
0.526834
0.51894
0.538168
0.712237
0.391731
0.453077
0.474766
0.48545
0.492961
0.489931
0.501559
0.517554
0.545718
0.56596
0.605176
0.688167
)
;
    }
    stator
    {
        type            kqRWallFunction;
        value           nonuniform List<scalar> 
48
(
0.359822
0.358791
0.357945
0.356873
0.355751
0.35457
0.353468
0.352435
0.351701
0.350393
0.337342
0.268339
0.269228
0.337796
0.350242
0.35155
0.351905
0.352477
0.353327
0.353924
0.355192
0.355533
0.355352
0.355712
0.646648
0.550391
0.539423
0.541838
0.546533
0.551657
0.557485
0.561358
0.555466
0.523579
0.443666
0.269228
0.652143
0.547153
0.535706
0.539494
0.543931
0.549822
0.555397
0.558854
0.552758
0.520442
0.44132
0.268339
)
;
    }
    front
    {
        type            empty;
    }
    back
    {
        type            empty;
    }
    procBoundary1to0
    {
        type            processor;
        value           nonuniform List<scalar> 
20
(
0.97221
1.01245
0.998176
0.986325
0.980222
0.977297
0.975763
0.974841
0.974191
0.973673
0.973239
0.972858
0.972516
0.972127
0.971144
0.967021
0.951197
0.899378
0.741803
0.358247
)
;
    }
    procBoundary1to3
    {
        type            processor;
        value           nonuniform List<scalar> 
20
(
0.933563
1.02239
0.999837
0.986088
0.979807
0.976845
0.975301
0.974384
0.97372
0.973225
0.972782
0.972426
0.972064
0.971679
0.970597
0.966193
0.949698
0.896739
0.737555
0.356848
)
;
    }
}


// ************************************************************************* //
