/*--------------------------------*- C++ -*----------------------------------*\
  =========                 |
  \\      /  F ield         | OpenFOAM: The Open Source CFD Toolbox
   \\    /   O peration     | Website:  https://openfoam.org
    \\  /    A nd           | Version:  6
     \\/     M anipulation  |
\*---------------------------------------------------------------------------*/
FoamFile
{
    version     2.0;
    format      ascii;
    class       volScalarField;
    location    "1500";
    object      p;
}
// * * * * * * * * * * * * * * * * * * * * * * * * * * * * * * * * * * * * * //

dimensions      [0 2 -2 0 0 0 0];

internalField   nonuniform List<scalar> 
768
(
0.998999
1.0872
1.3054
1.58038
1.90163
2.23852
2.60146
2.96548
3.34802
3.72573
4.11529
4.49432
0.889103
1.05915
1.27034
1.51793
1.84946
2.2146
2.59584
2.97636
3.36468
3.75007
4.14022
4.52428
0.67959
0.947082
1.15973
1.38249
1.72053
2.11758
2.52948
2.93654
3.34065
3.73844
4.13437
4.52501
0.517261
0.837851
1.0586
1.28973
1.64582
2.06579
2.49816
2.9213
3.33492
3.73787
4.13481
4.52532
0.421529
0.782914
1.00875
1.26375
1.64469
2.08098
2.52197
2.94846
3.36089
3.75946
4.14974
4.53242
0.384131
0.769952
1.01085
1.29722
1.70043
2.14801
2.5873
3.00985
3.41137
3.80023
4.17602
4.54736
0.3801
0.797841
1.0675
1.38672
1.81213
2.25894
2.69221
3.09844
3.48602
3.85463
4.21488
4.56592
0.41341
0.876164
1.18153
1.53861
1.97533
2.4155
2.82928
3.21473
3.57741
3.92384
4.26002
4.59027
0.475538
0.997056
1.35569
1.74959
2.18817
2.6084
2.99416
3.34957
3.68282
4.00138
4.31125
4.61678
0.589465
1.1912
1.60755
2.02486
2.44595
2.83125
3.17822
3.49683
3.79608
4.08392
4.36546
4.64496
0.812674
1.50924
1.96357
2.36773
2.74163
3.0735
3.37204
3.6485
3.91144
4.16708
4.42018
4.67318
1.3285
2.05021
2.45808
2.77502
3.06186
3.3229
3.56607
3.79804
4.02402
4.24797
4.4732
4.70062
4.88125
5.25606
5.63434
5.998
6.36124
6.70896
7.05348
7.38339
7.69661
7.93276
8.12601
8.31898
4.91052
5.28942
5.66772
6.03674
6.40356
6.76264
7.12103
7.47138
7.7904
8.02431
8.22741
8.44013
4.91454
5.29957
5.68341
6.06344
6.44397
6.82505
7.21066
7.59313
7.93125
8.15792
8.36527
8.64773
4.91336
5.29833
5.68371
6.06887
6.45843
6.85342
7.25819
7.66448
8.03096
8.2803
8.5123
8.83182
4.91264
5.29051
5.6703
6.05245
6.44117
6.83908
7.24994
7.66997
8.06308
8.34682
8.59913
8.96554
4.91294
5.28018
5.6475
6.02082
6.40037
6.7924
7.19929
7.62323
8.03254
8.34195
8.59896
9.0133
4.91649
5.26469
5.61754
5.9732
6.33877
6.71463
7.11062
7.52497
7.93606
8.26574
8.53962
8.97379
4.91836
5.24667
5.57706
5.91231
6.25411
6.6091
6.98108
7.37705
7.78563
8.1296
8.41429
8.86722
4.9209
5.22505
5.53091
5.83949
6.15419
6.47907
6.82225
7.1909
7.57717
7.93202
8.23552
8.69345
4.92361
5.20222
5.48107
5.76059
6.0439
6.33457
6.6409
6.97083
7.33039
7.67186
7.97131
8.44141
4.92647
5.17913
5.43016
5.67982
5.92959
6.18355
6.44801
6.73107
7.0367
7.34767
7.61906
8.02975
4.92938
5.15669
5.38045
5.60051
5.81714
6.03382
6.25318
6.48078
6.72083
6.95478
7.14102
7.42343
3.1038
2.88816
3.04334
3.20083
3.37709
3.56191
3.7496
3.93863
4.12948
4.32373
4.52279
4.7265
4.17878
3.60529
3.52748
3.56387
3.65425
3.77582
3.9153
4.06617
4.22548
4.39283
4.56809
4.75021
4.58843
4.06099
3.88692
3.85075
3.88343
3.95791
4.05897
4.17793
4.31023
4.45405
4.60851
4.77154
4.76112
4.34007
4.1457
4.07238
4.06869
4.1098
4.1814
4.27444
4.38398
4.50777
4.64395
4.78962
4.9325
5.13578
5.33389
5.52576
5.71172
5.89272
6.0695
6.24086
6.39865
6.52228
6.51751
6.12145
4.93604
5.11717
5.29147
5.45773
5.61609
5.76571
5.9056
6.03049
6.12976
6.17431
6.10259
5.76619
4.9406
5.10155
5.2541
5.3979
5.53217
5.65572
5.76601
5.85686
5.91581
5.92127
5.82439
5.5043
4.94744
5.08941
5.22231
5.34648
5.46022
5.56228
5.6493
5.71572
5.75023
5.73262
5.62815
5.34594
4.84293
4.51522
4.33043
4.24233
4.21735
4.2358
4.28527
4.35764
4.44829
4.55511
4.67531
4.80557
4.88058
4.62644
4.4632
4.37354
4.3374
4.34075
4.3736
4.42928
4.504
4.59621
4.70236
4.81465
4.90142
4.701
4.56
4.47427
4.43281
4.42603
4.44635
4.48848
4.54949
4.62853
4.71941
4.81377
4.91405
4.75281
4.63164
4.55207
4.50874
4.49521
4.506
4.53682
4.58527
4.65025
4.7217
4.78976
4.95874
5.08228
5.19781
5.3051
5.40183
5.48622
5.55535
5.60385
5.62179
5.59342
5.48927
5.25254
4.97794
5.08122
5.18059
5.27327
5.35556
5.4254
5.48045
5.51566
5.52278
5.4877
5.38949
5.19394
5.00429
5.08667
5.16971
5.24924
5.31891
5.37679
5.42059
5.44597
5.44579
5.40894
5.31919
5.15884
5.04304
5.10261
5.16594
5.23195
5.29002
5.33763
5.37228
5.39031
5.38553
5.34899
5.26984
5.1385
4.92156
4.78962
4.68521
4.61239
4.56897
4.55097
4.55432
4.57558
4.61234
4.66172
4.70809
4.73521
4.92654
4.81635
4.72581
4.65952
4.6171
4.59619
4.59377
4.60701
4.63338
4.66881
4.69794
4.71501
4.92928
4.83603
4.75692
4.69658
4.65562
4.63273
4.62581
4.6324
4.65012
4.67494
4.69441
4.70571
4.93125
4.85074
4.78102
4.72592
4.68672
4.6626
4.65219
4.65336
4.66395
4.68035
4.69354
4.70074
4.93191
4.86193
4.79993
4.74944
4.71194
4.68697
4.67386
4.67055
4.67547
4.68521
4.6933
4.69817
4.93265
4.87044
4.81498
4.76833
4.73262
4.70716
4.69193
4.68505
4.68525
4.68962
4.6937
4.69658
4.93276
4.87694
4.82722
4.78357
4.74976
4.72363
4.70701
4.69696
4.69357
4.69356
4.6943
4.69601
4.93286
4.88198
4.83684
4.79577
4.76358
4.73708
4.71937
4.70682
4.70058
4.6971
4.6953
4.69587
4.93324
4.8849
4.84421
4.80401
4.77397
4.74643
4.72859
4.71384
4.70591
4.69992
4.69646
4.69621
4.93223
4.88708
4.84691
4.80898
4.77853
4.7519
4.73294
4.71796
4.70863
4.70187
4.69767
4.69669
4.93165
4.8877
4.84764
4.81061
4.77983
4.75372
4.73425
4.71942
4.70958
4.7028
4.69859
4.69726
4.93125
4.88791
4.84775
4.81111
4.78005
4.75422
4.73453
4.71987
4.7099
4.70323
4.69911
4.69779
5.10421
5.12734
5.16852
5.22043
5.26792
5.30666
5.33393
5.34631
5.33861
5.3041
5.23471
5.12662
5.1287
5.14485
5.17217
5.21245
5.25073
5.28184
5.30306
5.31105
5.30167
5.26951
5.20957
5.12002
5.14239
5.15363
5.17483
5.2068
5.23747
5.26232
5.27844
5.28311
5.27258
5.24329
5.19112
5.11638
5.15167
5.15962
5.17698
5.20254
5.22702
5.24652
5.25855
5.26045
5.24946
5.22253
5.17761
5.11467
5.1586
5.16442
5.17889
5.19945
5.21887
5.23396
5.24244
5.24223
5.23078
5.20654
5.16719
5.11391
5.16419
5.16862
5.18075
5.19708
5.21239
5.22355
5.22932
5.22703
5.21572
5.19315
5.15921
5.11373
5.16874
5.17235
5.18269
5.19542
5.20741
5.2151
5.2186
5.21447
5.20331
5.18239
5.15257
5.11372
5.17252
5.17578
5.18464
5.19437
5.20355
5.20838
5.20993
5.20433
5.19319
5.1735
5.14713
5.11368
5.17568
5.17883
5.18693
5.19384
5.20162
5.20342
5.20442
5.19658
5.18656
5.16651
5.14328
5.11371
5.17798
5.18147
5.18838
5.19468
5.20049
5.20209
5.20118
5.19378
5.18245
5.16374
5.1409
5.11372
5.17939
5.18286
5.1892
5.19528
5.20041
5.20198
5.2004
5.19308
5.18129
5.16281
5.14013
5.11353
5.17972
5.18315
5.18928
5.19543
5.20033
5.20207
5.20021
5.19307
5.18097
5.16269
5.13996
5.1132
)
;

boundaryField
{
    rotor
    {
        type            zeroGradient;
    }
    stator
    {
        type            zeroGradient;
    }
    front
    {
        type            empty;
    }
    back
    {
        type            empty;
    }
    procBoundary1to0
    {
        type            processor;
        value           nonuniform List<scalar> 
20
(
2.91457
4.04591
4.49951
4.7102
4.82413
4.88878
4.93276
4.96512
4.99017
5.0102
5.02653
5.04009
5.05141
5.06098
5.06899
5.07553
5.08031
5.08301
5.08383
5.08374
)
;
    }
    procBoundary1to3
    {
        type            processor;
        value           nonuniform List<scalar> 
20
(
6.27613
5.88172
5.58317
5.38977
5.26687
5.18312
5.12721
5.08858
5.06137
5.04088
5.02557
5.01306
5.00336
4.99487
4.98819
4.98243
4.97803
4.97577
4.97449
4.97401
)
;
    }
}


// ************************************************************************* //
