/*--------------------------------*- C++ -*----------------------------------*\
  =========                 |
  \\      /  F ield         | OpenFOAM: The Open Source CFD Toolbox
   \\    /   O peration     | Website:  https://openfoam.org
    \\  /    A nd           | Version:  6
     \\/     M anipulation  |
\*---------------------------------------------------------------------------*/
FoamFile
{
    version     2.0;
    format      ascii;
    class       surfaceScalarField;
    location    "1500";
    object      phi;
}
// * * * * * * * * * * * * * * * * * * * * * * * * * * * * * * * * * * * * * //

dimensions      [0 3 -1 0 0 0 0];

internalField   nonuniform List<scalar> 
1468
(
-3.2292e-06
3.24738e-06
-5.1183e-06
1.09951e-06
-5.6741e-06
6.66322e-07
-7.51003e-06
9.58743e-07
-8.21724e-06
8.50637e-07
-9.69639e-06
5.57523e-07
-9.91137e-06
3.61427e-07
-1.09961e-05
1.8378e-07
-1.09305e-05
1.17072e-07
-1.1688e-05
3.78433e-08
-1.12953e-05
3.5834e-08
-7.64097e-09
-1.17431e-05
-3.55726e-06
6.63719e-06
-4.49502e-06
1.85269e-06
-4.47459e-06
6.0438e-07
-3.98293e-06
3.398e-07
-3.39653e-06
2.28255e-07
-3.07742e-06
1.12719e-07
-2.78179e-06
2.52886e-08
-2.69095e-06
-4.01577e-08
-2.52898e-06
-6.15704e-08
-2.50632e-06
-6.71333e-08
-2.39101e-06
-4.61909e-08
-2.69617e-08
-2.40308e-06
-8.66089e-07
7.27096e-06
-6.32139e-07
1.49637e-06
-2.46493e-07
1.84378e-07
1.55833e-07
-1.09179e-07
5.50285e-07
-1.91808e-07
8.48967e-07
-2.28917e-07
1.09445e-06
-2.43104e-07
1.25308e-06
-2.38541e-07
1.3904e-06
-2.11176e-07
1.47014e-06
-1.68431e-07
1.54348e-06
-1.12238e-07
-5.16856e-08
1.56609e-06
-3.4086e-07
7.23203e-06
6.23183e-07
3.99453e-07
1.21563e-06
-4.47633e-07
1.64132e-06
-5.76645e-07
2.00674e-06
-5.80969e-07
2.29725e-06
-5.54832e-07
2.5428e-06
-5.09546e-07
2.72216e-06
-4.4841e-07
2.87006e-06
-3.70711e-07
2.96535e-06
-2.81755e-07
3.03798e-06
-1.84279e-07
-8.30358e-08
3.06598e-06
1.40167e-07
6.42303e-06
1.18852e-06
-8.36754e-07
1.9117e-06
-1.23756e-06
2.41432e-06
-1.13616e-06
2.81914e-06
-1.02172e-06
3.1414e-06
-9.2425e-07
3.41103e-06
-8.07866e-07
3.6142e-06
-6.90822e-07
3.77729e-06
-5.51244e-07
3.8843e-06
-4.16641e-07
3.9616e-06
-2.65723e-07
-1.27224e-07
3.98978e-06
2.10236e-07
5.40157e-06
1.61385e-06
-2.48261e-06
2.4665e-06
-2.2399e-06
3.0775e-06
-1.81582e-06
3.5285e-06
-1.56605e-06
3.90909e-06
-1.3513e-06
4.19253e-06
-1.16633e-06
4.43177e-06
-9.57999e-07
4.59011e-06
-7.6788e-07
4.7206e-06
-5.56442e-07
4.78128e-06
-3.697e-07
-1.64468e-07
4.82635e-06
1.35595e-07
3.62402e-06
1.97728e-06
-4.75008e-06
3.07191e-06
-3.47818e-06
3.77178e-06
-2.65839e-06
4.3171e-06
-2.18937e-06
4.71453e-06
-1.85566e-06
5.04462e-06
-1.54625e-06
5.2691e-06
-1.26367e-06
5.45575e-06
-9.78864e-07
5.55815e-06
-7.18965e-07
5.64149e-06
-4.57753e-07
-2.18244e-07
5.65747e-06
2.61897e-07
2.83124e-06
2.4358e-06
-7.16179e-06
3.75141e-06
-4.93212e-06
4.59461e-06
-3.60668e-06
5.19392e-06
-2.88101e-06
5.63223e-06
-2.36965e-06
5.95527e-06
-1.93801e-06
6.18849e-06
-1.54808e-06
6.3515e-06
-1.18962e-06
6.45609e-06
-8.59e-07
6.51716e-06
-5.49694e-07
-2.57264e-07
6.54023e-06
3.345e-07
1.36205e-06
2.95533e-06
-1.00239e-05
4.57667e-06
-6.65956e-06
5.55708e-06
-4.6705e-06
6.20142e-06
-3.59748e-06
6.64061e-06
-2.8752e-06
6.94535e-06
-2.29754e-06
7.15442e-06
-1.80516e-06
7.29284e-06
-1.37004e-06
7.37809e-06
-9.8159e-07
7.42366e-06
-6.25672e-07
-2.94708e-07
7.43984e-06
1.00585e-06
5.23343e-07
3.88428e-06
-1.29097e-05
5.68528e-06
-8.50423e-06
6.72352e-06
-5.74525e-06
7.34639e-06
-4.26626e-06
7.74053e-06
-3.30681e-06
7.99215e-06
-2.58758e-06
8.1568e-06
-2.00104e-06
8.25672e-06
-1.50494e-06
8.31509e-06
-1.06936e-06
8.34024e-06
-6.81479e-07
-3.20475e-07
8.34982e-06
3.47145e-06
-2.69342e-06
5.78693e-06
-1.51117e-05
7.29937e-06
-9.99759e-06
8.15642e-06
-6.61305e-06
8.63436e-06
-4.76701e-06
8.91017e-06
-3.60815e-06
9.07462e-06
-2.77788e-06
9.17279e-06
-2.12611e-06
9.227e-06
-1.58717e-06
9.24994e-06
-1.12378e-06
9.25548e-06
-7.14207e-07
-3.37876e-07
9.25539e-06
9.80966e-06
-1.22707e-05
9.48686e-06
-1.45799e-05
9.64625e-06
-1.00654e-05
9.87607e-06
-6.81328e-06
1.00282e-05
-4.90661e-06
1.01136e-05
-3.69554e-06
1.01618e-05
-2.8307e-06
1.01833e-05
-2.15955e-06
1.0186e-05
-1.60697e-06
1.01731e-05
-1.13592e-06
1.01571e-05
-7.20162e-07
1.01478e-05
-3.42473e-07
-1.11946e-05
3.35228e-09
-1.13646e-05
-3.00066e-08
-1.06405e-05
-2.66744e-08
-1.05864e-05
-7.58036e-08
-9.79097e-06
-1.13001e-07
-9.4989e-06
-2.27754e-07
-8.58174e-06
-3.66041e-07
-7.76061e-06
-5.36684e-07
-6.87911e-06
-4.98033e-07
-5.95739e-06
-5.91631e-07
-3.33297e-06
-2.1127e-06
-3.19795e-06
-2.33088e-06
5.18458e-09
-2.36642e-06
2.74768e-08
-2.33174e-06
5.11515e-08
-2.40403e-06
5.40956e-08
-2.44755e-06
4.44367e-08
-2.61405e-06
2.41537e-09
-2.8211e-06
-6.19195e-08
-3.12122e-06
-1.53075e-07
-3.24407e-06
-2.76798e-07
-3.08595e-06
-6.26814e-07
-3.07486e-06
-1.89274e-06
-6.20969e-06
1.58335e-06
1.30549e-08
1.5564e-06
7.39059e-08
1.51926e-06
1.29577e-07
1.43327e-06
1.73595e-07
1.32003e-06
2.04029e-07
1.14599e-06
2.16097e-07
9.17833e-07
2.07995e-07
6.31664e-07
1.76485e-07
3.08143e-07
8.66728e-08
-3.05453e-08
-2.17515e-07
-2.7478e-07
-1.54424e-06
-6.48093e-06
3.07357e-06
1.85703e-08
3.03998e-06
1.17893e-07
2.98452e-06
2.12223e-07
2.88256e-06
2.98027e-07
2.74758e-06
3.74836e-07
2.55581e-06
4.36725e-07
2.31547e-06
4.84845e-07
2.00901e-06
5.11113e-07
1.62877e-06
4.9985e-07
1.06561e-06
3.56846e-07
4.238e-08
-5.22303e-07
-6.28054e-06
3.99379e-06
2.33049e-08
3.95308e-06
1.59091e-07
3.88513e-06
3.02758e-07
3.77063e-06
4.33923e-07
3.61365e-06
5.66728e-07
3.3999e-06
6.87575e-07
3.12056e-06
8.01699e-07
2.76076e-06
9.02375e-07
2.28228e-06
1.00668e-06
1.53143e-06
1.13655e-06
2.35411e-07
1.05374e-06
-5.87766e-06
4.81006e-06
1.61801e-08
4.77995e-06
2.1553e-07
4.69412e-06
3.97062e-07
4.58057e-06
5.96016e-07
4.40419e-06
7.84304e-07
4.17322e-06
9.85393e-07
3.85276e-06
1.1746e-06
3.44563e-06
1.38297e-06
2.90692e-06
1.64206e-06
2.13353e-06
2.06086e-06
9.0053e-07
2.46456e-06
-4.33041e-06
5.6634e-06
2.81066e-08
5.61163e-06
2.62254e-07
5.5456e-06
5.13325e-07
5.41752e-06
7.61665e-07
5.25267e-06
1.03524e-06
4.99789e-06
1.30865e-06
4.66959e-06
1.61279e-06
4.22886e-06
1.93588e-06
3.61535e-06
2.33037e-06
2.72463e-06
3.05757e-06
1.69605e-06
4.12014e-06
-2.56056e-06
6.5334e-06
2.77791e-08
6.49893e-06
3.15374e-07
6.42954e-06
6.10994e-07
6.32648e-06
9.29207e-07
6.15872e-06
1.26568e-06
5.927e-06
1.63922e-06
5.58469e-06
2.03768e-06
5.10028e-06
2.49377e-06
4.45432e-06
3.11857e-06
3.47505e-06
4.15416e-06
1.98862e-06
5.61655e-06
-1.19098e-08
7.43527e-06
2.82448e-08
7.40818e-06
3.53533e-07
7.35954e-06
6.95893e-07
7.27302e-06
1.06529e-06
7.13806e-06
1.47036e-06
6.92292e-06
1.92328e-06
6.60264e-06
2.43715e-06
6.14487e-06
3.0501e-06
5.41864e-06
3.83726e-06
4.32779e-06
5.31294e-06
2.81398e-06
7.52466e-06
2.52128e-06
8.34708e-06
2.70713e-08
8.33405e-06
3.80963e-07
8.30785e-06
7.57558e-07
8.25108e-06
1.16543e-06
8.15582e-06
1.62467e-06
7.9878e-06
2.14277e-06
7.7242e-06
2.75296e-06
7.28971e-06
3.5035e-06
6.64935e-06
4.57991e-06
5.56099e-06
6.39452e-06
3.73023e-06
9.1324e-06
6.39715e-06
9.25711e-06
2.38203e-08
9.26059e-06
3.94584e-07
9.25765e-06
7.91462e-07
9.23955e-06
1.22553e-06
9.18968e-06
1.71511e-06
9.09076e-06
2.27726e-06
8.91773e-06
2.95977e-06
8.63021e-06
3.83005e-06
8.10583e-06
5.04464e-06
7.30679e-06
7.20475e-06
5.66728e-06
1.07903e-05
1.15749e-05
1.0155e-05
1.8091e-08
1.01751e-05
3.9336e-07
1.01967e-05
7.95596e-07
1.02162e-05
1.24027e-06
1.02174e-05
1.73497e-06
1.0203e-05
2.31187e-06
1.0156e-05
3.00568e-06
1.00587e-05
3.90999e-06
9.90203e-06
5.23191e-06
9.60384e-06
7.38686e-06
8.72833e-06
1.13628e-05
2.03896e-05
1.7565e-05
-6.87883e-06
1.3993e-05
-1.08245e-05
1.22977e-05
-8.2745e-06
1.16626e-05
-6.1329e-06
1.141e-05
-4.63317e-06
1.12891e-05
-3.56811e-06
1.12186e-05
-2.76076e-06
1.11668e-05
-2.11596e-06
1.11199e-05
-1.57716e-06
1.10743e-05
-1.11405e-06
1.10368e-05
-7.05135e-07
-3.36506e-07
1.10187e-05
1.92304e-05
-3.57356e-06
1.5737e-05
-7.16417e-06
1.3964e-05
-6.39239e-06
1.30844e-05
-5.18184e-06
1.26301e-05
-4.13799e-06
1.23767e-05
-3.28665e-06
1.22188e-05
-2.58793e-06
1.21094e-05
-2.00051e-06
1.20216e-05
-1.49664e-06
1.19479e-05
-1.05541e-06
1.18906e-05
-6.65841e-07
-3.16489e-07
1.18624e-05
1.87065e-05
-2.00652e-06
1.64582e-05
-4.78308e-06
1.50237e-05
-4.85848e-06
1.41797e-05
-4.27164e-06
1.36749e-05
-3.59195e-06
1.33609e-05
-2.94635e-06
1.31533e-05
-2.36618e-06
1.3005e-05
-1.84826e-06
1.28878e-05
-1.38717e-06
1.27902e-05
-9.75846e-07
1.27157e-05
-6.06592e-07
-2.77332e-07
1.26738e-05
1.82117e-05
-1.23935e-06
1.68355e-05
-3.29765e-06
1.57748e-05
-3.69912e-06
1.50542e-05
-3.48003e-06
1.45746e-05
-3.05842e-06
1.42497e-05
-2.58438e-06
1.40232e-05
-2.11242e-06
1.38544e-05
-1.66486e-06
1.37177e-05
-1.24893e-06
1.36024e-05
-8.68718e-07
1.35101e-05
-5.21028e-07
1.34412e-05
-2.17111e-07
1.10332e-05
7.12788e-09
1.1068e-05
3.75316e-07
1.11143e-05
7.74687e-07
1.11644e-05
1.21276e-06
1.12169e-05
1.69699e-06
1.12778e-05
2.25258e-06
1.13668e-05
2.91008e-06
1.15328e-05
3.73465e-06
1.18614e-05
4.82793e-06
1.27e-05
6.50827e-06
1.50447e-05
8.9632e-06
1.25093e-05
1.18869e-05
-1.1695e-08
1.19363e-05
3.39757e-07
1.20025e-05
7.28104e-07
1.20773e-05
1.14667e-06
1.21688e-05
1.60692e-06
1.22862e-05
2.11733e-06
1.24665e-05
2.70282e-06
1.27684e-05
3.38907e-06
1.33414e-05
4.23037e-06
1.44734e-05
5.26898e-06
1.67931e-05
6.5286e-06
6.83206e-06
1.27138e-05
-4.94678e-08
1.27786e-05
2.87295e-07
1.28586e-05
6.60557e-07
1.2953e-05
1.05783e-06
1.30679e-05
1.48573e-06
1.32198e-05
1.94636e-06
1.3443e-05
2.45149e-06
1.37977e-05
3.00013e-06
1.43838e-05
3.58696e-06
1.54147e-05
4.20181e-06
1.72421e-05
4.64978e-06
3.83732e-06
1.35143e-05
-1.16994e-07
1.35963e-05
2.13979e-07
1.3688e-05
5.71969e-07
1.37956e-05
9.46537e-07
1.39235e-05
1.33759e-06
1.40917e-05
1.7483e-06
1.43263e-05
2.17285e-06
1.46767e-05
2.60355e-06
1.52159e-05
3.00836e-06
1.60478e-05
3.3057e-06
1.73497e-05
3.31271e-06
2.24618e-06
2.52172e-06
-7.88123e-07
1.648e-06
-2.335e-06
8.7815e-07
-2.84885e-06
3.00504e-07
-2.84032e-06
-1.16636e-07
-2.59579e-06
-4.17693e-07
-2.25183e-06
-6.39243e-07
-1.86966e-06
-8.1186e-07
-1.48211e-06
-9.58219e-07
-1.10409e-06
-1.08858e-06
-7.47411e-07
-1.20855e-06
-4.11016e-07
-8.83844e-08
-1.32061e-06
1.93441e-06
-5.22118e-07
1.37139e-06
-1.69847e-06
8.10573e-07
-2.21793e-06
3.49606e-07
-2.31804e-06
-8.67191e-09
-2.18971e-06
-2.81329e-07
-1.94023e-06
-4.91951e-07
-1.63045e-06
-6.62647e-07
-1.29246e-06
-8.15758e-07
-9.44068e-07
-9.67902e-07
-5.96755e-07
-1.13981e-06
-2.2848e-07
1.20701e-07
-1.36986e-06
1.5234e-06
-3.59695e-07
1.14935e-06
-1.26797e-06
7.36437e-07
-1.74738e-06
3.68525e-07
-1.89999e-06
6.50507e-08
-1.84674e-06
-1.77232e-07
-1.6674e-06
-3.71428e-07
-1.4153e-06
-5.34143e-07
-1.11718e-06
-6.88009e-07
-7.87339e-07
-8.61959e-07
-4.23138e-07
-1.14249e-06
4.13001e-08
5.77576e-07
-1.5641e-06
1.22749e-06
-2.51267e-07
9.70516e-07
-9.66616e-07
6.62029e-07
-1.38996e-06
3.6772e-07
-1.56181e-06
1.1311e-07
-1.5521e-06
-9.87422e-08
-1.42315e-06
-2.72538e-07
-1.21451e-06
-4.20365e-07
-9.50759e-07
-5.60719e-07
-6.37463e-07
-7.30131e-07
-2.52951e-07
-1.05792e-06
3.86335e-07
-1.74047e-06
1.22354e-06
-1.18366e-06
-2.64548e-07
-1.07302e-06
1.03454e-07
-9.66773e-07
4.65443e-07
-8.50251e-07
8.22521e-07
-7.13221e-07
1.1829e-06
-5.38801e-07
1.54645e-06
-3.02722e-07
1.90217e-06
3.05833e-08
2.23415e-06
5.03463e-07
2.4985e-06
1.17023e-06
2.6188e-06
2.06531e-06
2.40116e-06
1.37208e-06
-1.10338e-06
-5.23309e-07
-9.41639e-07
-6.19384e-08
-8.18964e-07
3.37233e-07
-6.99168e-07
6.86175e-07
-5.62986e-07
1.02166e-06
-3.95535e-07
1.34182e-06
-1.75128e-07
1.64023e-06
1.21482e-07
1.89479e-06
5.21862e-07
2.06462e-06
1.04178e-06
2.07022e-06
1.66744e-06
1.77171e-06
8.77781e-07
-1.08169e-06
-1.03262e-06
-8.27816e-07
-3.24129e-07
-6.90214e-07
1.90302e-07
-5.72192e-07
5.53807e-07
-4.44085e-07
8.72269e-07
-2.88843e-07
1.15874e-06
-9.03474e-08
1.41036e-06
1.67546e-07
1.60599e-06
4.99454e-07
1.70986e-06
9.06884e-07
1.65449e-06
1.35085e-06
1.32957e-06
5.79834e-07
-9.72073e-07
-1.78521e-06
-6.87403e-07
-6.12031e-07
-5.64333e-07
5.63767e-08
-4.60429e-07
4.32037e-07
-3.46258e-07
7.30867e-07
-2.06755e-07
9.87171e-07
-3.19149e-08
1.1995e-06
1.8954e-07
1.35237e-06
4.63226e-07
1.41247e-06
7.81786e-07
1.32497e-06
1.10456e-06
1.0156e-06
3.96046e-07
1.0081e-06
-1.85242e-07
8.27033e-07
-7.49468e-07
5.92638e-07
-1.11629e-06
3.56979e-07
-1.28828e-06
1.43767e-07
-1.30722e-06
-3.8801e-08
-1.21515e-06
-1.91201e-07
-1.0437e-06
-3.18439e-07
-8.12144e-07
-4.26507e-07
-5.25534e-07
-5.11389e-07
-1.66479e-07
-5.81743e-07
4.42279e-07
6.66498e-07
8.44141e-07
-1.31518e-07
7.1182e-07
-5.89969e-07
5.30951e-07
-9.04428e-07
3.40805e-07
-1.06727e-06
1.6268e-07
-1.10017e-06
6.53127e-09
-1.03283e-06
-1.2497e-07
-8.90872e-07
-2.31663e-07
-6.89453e-07
-3.11507e-07
-4.36979e-07
-3.46143e-07
-1.3208e-07
-2.29407e-07
3.30383e-07
3.68772e-07
7.17469e-07
-1.01848e-07
6.19203e-07
-4.68057e-07
4.77456e-07
-7.36967e-07
3.23206e-07
-8.85334e-07
1.74283e-07
-9.27844e-07
4.0945e-08
-8.80253e-07
-7.17354e-08
-7.64402e-07
-1.61178e-07
-5.91912e-07
-2.22357e-07
-3.73317e-07
-2.40631e-07
-1.15308e-07
-1.64202e-07
2.34827e-07
2.02714e-07
6.20716e-07
-6.85827e-08
5.44369e-07
-3.76958e-07
4.31957e-07
-6.05286e-07
3.05134e-07
-7.39757e-07
1.80567e-07
-7.83055e-07
6.65354e-08
-7.48105e-07
-2.96943e-08
-6.52257e-07
-1.05095e-07
-5.04565e-07
-1.53241e-07
-3.19211e-07
-1.65087e-07
-1.04055e-07
-1.0418e-07
1.69732e-07
3.45843e-08
5.42949e-07
-5.81408e-08
4.84061e-07
-3.01946e-07
3.93219e-07
-4.99953e-07
2.88564e-07
-6.15761e-07
1.83767e-07
-6.624e-07
8.57158e-08
-6.37691e-07
3.45143e-09
-5.60086e-07
-6.14596e-08
-4.36399e-07
-1.00369e-07
-2.78548e-07
-1.08798e-07
-9.9967e-08
-6.46173e-08
1.0975e-07
-4.83419e-08
4.84716e-07
-3.86761e-08
4.35425e-07
-2.44488e-07
3.62196e-07
-4.18166e-07
2.73332e-07
-5.15475e-07
1.8515e-07
-5.64171e-07
9.98011e-08
-5.39571e-07
2.90366e-08
-4.80881e-07
-2.75132e-08
-3.7097e-07
-6.01327e-08
-2.4323e-07
-6.75194e-08
-9.29911e-08
-3.20575e-08
6.77889e-08
-1.26289e-07
4.43346e-07
-3.05657e-08
4.00409e-07
-1.99854e-07
3.41648e-07
-3.4642e-07
2.62428e-07
-4.32553e-07
1.88986e-07
-4.76629e-07
1.10443e-07
-4.60243e-07
5.05487e-08
-4.11741e-07
-2.60812e-09
-3.2119e-07
-2.95256e-08
-2.13914e-07
-3.82505e-08
-9.13909e-08
-1.11118e-08
2.98989e-08
-1.67795e-07
4.30323e-07
-2.88051e-08
3.90367e-07
-1.52025e-07
3.39911e-07
-2.98493e-07
2.65265e-07
-3.49731e-07
2.00127e-07
-4.11523e-07
1.24093e-07
-3.76145e-07
7.01036e-08
-3.57278e-07
1.73546e-08
-2.63685e-07
-6.82329e-09
-1.91185e-07
-1.79336e-08
-8.12644e-08
6.11495e-09
-2.301e-09
-1.89545e-07
4.76576e-07
1.096e-08
4.26341e-07
-1.42565e-07
3.86084e-07
-2.0541e-07
2.97115e-07
-3.08255e-07
2.40376e-07
-3.0114e-07
1.4847e-07
-3.32147e-07
1.00571e-07
-2.66816e-07
3.46469e-08
-2.38643e-07
1.44319e-08
-1.45436e-07
-5.59291e-09
-9.1177e-08
2.21339e-08
-2.72685e-08
-2.18724e-07
6.30031e-07
2.48006e-08
5.78425e-07
-8.98622e-08
5.19133e-07
-1.33345e-07
4.1696e-07
-2.16358e-07
3.34377e-07
-2.03392e-07
2.24863e-07
-2.38732e-07
1.53385e-07
-1.85553e-07
7.35099e-08
-1.79254e-07
3.8595e-08
-1.09959e-07
1.14823e-08
-8.79744e-08
3.30702e-08
-6.67084e-08
-2.36279e-07
9.77354e-07
9.93718e-08
9.09297e-07
-1.98742e-08
8.27077e-07
-1.25326e-08
6.87511e-07
-1.03703e-07
5.63738e-07
-4.03734e-08
4.06331e-07
-1.22227e-07
2.93835e-07
-5.36463e-08
1.75357e-07
-1.16194e-07
1.12907e-07
-5.87626e-08
6.23836e-08
-1.08171e-07
6.45919e-08
-1.20767e-07
-2.69487e-07
1.07578e-06
1.06624e-06
1.04596e-06
9.53018e-07
9.01736e-07
7.85632e-07
7.18149e-07
6.00557e-07
5.25222e-07
4.06581e-07
2.69487e-07
-4.70944e-07
-1.33043e-06
-4.77503e-07
-6.12354e-07
-4.35764e-07
3.87426e-09
-3.61661e-07
3.4343e-07
-2.64979e-07
6.14398e-07
-1.42807e-07
8.42126e-07
9.64233e-09
1.02181e-06
1.98276e-07
1.14194e-06
4.23383e-07
1.17265e-06
6.74939e-07
1.07279e-06
9.13856e-07
7.86627e-07
2.75925e-07
-1.75337e-07
-1.12222e-06
-3.30851e-07
-4.58105e-07
-3.29479e-07
-5.70794e-09
-2.78252e-07
2.75208e-07
-1.97874e-07
5.13031e-07
-9.26469e-08
7.10525e-07
3.9486e-08
8.65133e-07
1.99426e-07
9.59458e-07
3.85083e-07
9.74218e-07
5.84331e-07
8.70429e-07
7.65516e-07
6.19063e-07
1.96682e-07
-1.4658e-07
-9.67502e-07
-2.44884e-07
-3.61443e-07
-2.49236e-07
-9.27416e-09
-2.10608e-07
2.26254e-07
-1.43879e-07
4.30817e-07
-5.26525e-08
6.03794e-07
6.08071e-08
7.33122e-07
1.97174e-07
8.10833e-07
3.49686e-07
8.11581e-07
5.10113e-07
7.16486e-07
6.49279e-07
4.90969e-07
1.41705e-07
-1.1254e-07
-8.24333e-07
-1.83584e-07
-2.89384e-07
-1.87519e-07
-1.10197e-08
-1.56899e-07
1.84003e-07
-1.00095e-07
3.59386e-07
-2.16579e-08
5.07998e-07
7.67732e-08
6.20871e-07
1.92245e-07
6.82541e-07
3.19452e-07
6.81279e-07
4.47685e-07
5.87117e-07
5.5786e-07
3.98121e-07
1.04764e-07
-8.4934e-08
-7.21976e-07
-1.38454e-07
-2.3429e-07
-1.40523e-07
-1.28177e-08
-1.14385e-07
1.52618e-07
-6.53007e-08
3.00202e-07
3.44656e-09
4.31934e-07
8.80577e-08
5.23146e-07
1.87674e-07
5.80611e-07
2.91791e-07
5.68468e-07
3.9811e-07
4.96113e-07
4.8487e-07
3.23616e-07
7.8808e-08
-6.54725e-08
-6.37943e-07
-1.05331e-07
-1.93436e-07
-1.03962e-07
-1.76731e-08
-8.13378e-08
1.23486e-07
-3.67933e-08
2.47582e-07
2.24752e-08
3.63763e-07
9.80256e-08
4.42575e-07
1.82133e-07
4.91897e-07
2.71474e-07
4.81642e-07
3.56581e-07
4.13777e-07
4.27943e-07
2.72502e-07
6.22072e-08
-5.44989e-08
-5.59106e-07
-8.22985e-08
-1.64588e-07
-7.60999e-08
-2.12392e-08
-5.60914e-08
9.81336e-08
-1.35412e-08
2.04544e-07
3.8675e-08
3.04965e-07
1.07352e-07
3.72201e-07
1.80554e-07
4.15417e-07
2.57107e-07
4.06161e-07
3.29065e-07
3.52449e-07
3.87047e-07
2.30343e-07
5.21395e-08
-5.16568e-08
-5.06279e-07
-6.78962e-08
-1.45594e-07
-5.68838e-08
-3.6617e-08
-3.76128e-08
7.85064e-08
5.33171e-09
1.55583e-07
5.41247e-08
2.56623e-07
1.2022e-07
3.02519e-07
1.87842e-07
3.52291e-07
2.57731e-07
3.35016e-07
3.21375e-07
2.99677e-07
3.71323e-07
1.91659e-07
4.38094e-08
-5.41327e-08
-4.03538e-07
-6.64379e-08
-1.46772e-07
-4.51706e-08
-2.91754e-08
-2.97681e-08
3.32068e-08
2.45651e-08
1.33358e-07
7.052e-08
1.77712e-07
1.4746e-07
2.5222e-07
2.13509e-07
2.6073e-07
2.90349e-07
2.81293e-07
3.51428e-07
2.27333e-07
4.02341e-07
1.65649e-07
3.87742e-08
-7.47177e-08
-3.23999e-07
-7.69873e-08
-1.37397e-07
-5.42712e-08
-4.29857e-08
-2.79835e-08
-1.11874e-09
3.6268e-08
7.66667e-08
1.0183e-07
1.01439e-07
1.9522e-07
1.62644e-07
2.85314e-07
1.69934e-07
3.7742e-07
1.88603e-07
4.59611e-07
1.6806e-07
5.19058e-07
1.23928e-07
4.31645e-08
-1.10316e-07
-1.95553e-07
-1.24065e-07
-1.11064e-07
-1.01386e-07
-3.91785e-08
-6.62498e-08
-5.79307e-08
2.05202e-08
1.04734e-08
1.1322e-07
-2.1481e-08
2.45042e-07
4.71417e-08
3.73351e-07
2.93423e-08
5.08967e-07
7.70525e-08
6.31592e-07
9.94132e-08
7.23192e-07
1.01868e-07
9.99705e-08
-1.92653e-07
-2.96246e-07
-3.415e-07
-3.9354e-07
-3.90922e-07
-4.08145e-07
-3.64108e-07
-3.29897e-07
-2.40499e-07
-1.25806e-07
-1.41279e-10
)
;

boundaryField
{
    rotor
    {
        type            calculated;
        value           uniform 0;
    }
    stator
    {
        type            calculated;
        value           uniform 0;
    }
    front
    {
        type            empty;
        value           nonuniform 0();
    }
    back
    {
        type            empty;
        value           nonuniform 0();
    }
    procBoundary1to0
    {
        type            processor;
        value           nonuniform List<scalar> 
20
(
2.27772e-05
2.25412e-05
2.02311e-05
1.89732e-05
2.95652e-06
2.18926e-06
1.67195e-06
1.3135e-06
1.05689e-06
8.68205e-07
7.26054e-07
6.16747e-07
5.31275e-07
4.64496e-07
4.16572e-07
3.95864e-07
4.25304e-07
5.47476e-07
7.69116e-07
1.17916e-07
)
;
    }
    procBoundary1to3
    {
        type            processor;
        value           nonuniform List<scalar> 
20
(
-2.27637e-05
-2.24704e-05
-2.01718e-05
-1.89265e-05
-2.923e-06
-2.16615e-06
-1.65961e-06
-1.30902e-06
-1.06167e-06
-8.78663e-07
-7.43842e-07
-6.38161e-07
-5.58819e-07
-4.94094e-07
-4.50617e-07
-4.34354e-07
-4.72448e-07
-6.32535e-07
-9.76223e-07
-9.60386e-07
)
;
    }
}


// ************************************************************************* //
