/*--------------------------------*- C++ -*----------------------------------*\
  =========                 |
  \\      /  F ield         | OpenFOAM: The Open Source CFD Toolbox
   \\    /   O peration     | Website:  https://openfoam.org
    \\  /    A nd           | Version:  6
     \\/     M anipulation  |
\*---------------------------------------------------------------------------*/
FoamFile
{
    version     2.0;
    format      ascii;
    class       volVectorField;
    location    "1500";
    object      U;
}
// * * * * * * * * * * * * * * * * * * * * * * * * * * * * * * * * * * * * * //

dimensions      [0 1 -1 0 0 0 0];

internalField   nonuniform List<vector> 
768
(
(0.280762 1.49973 0)
(0.273026 1.61663 0)
(0.324716 1.49701 -1.00115e-20)
(0.380473 1.352 -4.21712e-18)
(0.434681 1.26066 6.8557e-18)
(0.493324 1.2026 -3.52371e-18)
(0.55171 1.1413 -2.14145e-18)
(0.614099 1.08755 -1.254e-17)
(0.673592 1.02669 2.11725e-17)
(0.736158 0.971312 -8.08538e-18)
(0.796995 0.911487 6.39029e-18)
(0.86048 0.855078 3.51436e-18)
(0.32559 1.06317 -9.38057e-20)
(0.218851 0.968959 -6.5856e-19)
(0.166967 0.754525 1.59664e-19)
(0.156621 0.613616 0)
(0.163432 0.540371 8.21593e-19)
(0.177186 0.497037 -1.20642e-18)
(0.195683 0.465187 0)
(0.216913 0.438271 0)
(0.240321 0.412609 0)
(0.26446 0.387608 2.51752e-21)
(0.289401 0.362468 -4.81854e-18)
(0.314095 0.337473 -1.39007e-19)
(0.302955 0.900741 1.09586e-19)
(0.1339 0.726821 0)
(0.0855711 0.500786 0)
(0.077376 0.384273 -5.28814e-19)
(0.0819505 0.329329 3.06963e-19)
(0.0910206 0.298016 -6.59713e-19)
(0.102492 0.2757 8.4277e-19)
(0.115461 0.257097 0)
(0.129643 0.23995 0)
(0.144451 0.223456 -6.73449e-19)
(0.15973 0.207177 -8.13709e-19)
(0.175142 0.191102 2.37221e-18)
(0.196447 0.915936 -4.13363e-19)
(0.0537491 0.692219 -3.81926e-19)
(0.0352797 0.448961 1.49049e-19)
(0.0392627 0.337392 -1.5815e-19)
(0.0490892 0.287293 5.41541e-19)
(0.0607497 0.258615 -5.99379e-19)
(0.0732247 0.237548 -3.75706e-19)
(0.0862586 0.21956 -1.36892e-18)
(0.0997941 0.203016 -1.21471e-19)
(0.113664 0.187266 1.05175e-18)
(0.127768 0.171972 1.28902e-18)
(0.141983 0.156969 -1.28826e-18)
(0.0548638 1.02419 0)
(-0.0334202 0.710286 1.43415e-19)
(-0.0109543 0.444267 -1.48866e-19)
(0.00835274 0.331892 2.72529e-19)
(0.0248226 0.282132 3.40899e-20)
(0.0401811 0.253023 3.06018e-19)
(0.0553057 0.230955 3.64736e-19)
(0.0702684 0.211858 4.24819e-19)
(0.0853125 0.194263 -1.02982e-18)
(0.100252 0.177686 1.02958e-18)
(0.115226 0.161676 -1.8544e-18)
(0.130081 0.146114 2.56836e-18)
(-0.161446 1.08006 -3.9638e-19)
(-0.131088 0.72229 9.62296e-20)
(-0.0597417 0.446021 2.87487e-19)
(-0.0230372 0.332679 0)
(0.000751422 0.282281 -5.56902e-19)
(0.0204301 0.251877 6.08476e-19)
(0.0385795 0.228447 0)
(0.0560713 0.20807 -9.32153e-19)
(0.0730279 0.189468 9.31496e-19)
(0.0895905 0.171985 0)
(0.105753 0.155276 -4.82876e-20)
(0.121663 0.138966 1.27029e-18)
(-0.416303 1.10333 0)
(-0.24263 0.726547 -2.62187e-19)
(-0.113382 0.444446 1.61745e-19)
(-0.0570927 0.33074 0)
(-0.0249721 0.279464 -3.13071e-19)
(-0.00041569 0.247798 -6.57676e-20)
(0.0212296 0.223302 7.23204e-19)
(0.0414657 0.202139 9.59613e-19)
(0.0605313 0.183001 -9.59222e-19)
(0.0787402 0.165096 1.13284e-18)
(0.0961161 0.148034 -1.17776e-18)
(0.112958 0.13127 -3.98913e-18)
(-0.690396 1.10002 0)
(-0.366974 0.721045 2.46287e-19)
(-0.172466 0.436307 -2.86697e-19)
(-0.0939657 0.322966 2.85373e-19)
(-0.0520707 0.271108 0)
(-0.0219833 0.238799 -6.88091e-19)
(0.00364909 0.213982 8.82781e-19)
(0.0266791 0.192883 1.09089e-19)
(0.0479242 0.173873 -2.0833e-18)
(0.0675723 0.156224 -1.19512e-18)
(0.0860593 0.139233 -5.47915e-20)
(0.103509 0.122503 2.67688e-18)
(-0.958779 1.01512 0)
(-0.501689 0.699084 -3.03591e-19)
(-0.236964 0.418711 -3.6136e-19)
(-0.132661 0.307189 -2.78859e-19)
(-0.0794924 0.25589 6.99319e-19)
(-0.0429893 0.224205 0)
(-0.0132532 0.200365 0)
(0.0126308 0.180328 0)
(0.0357473 0.162372 0)
(0.0566796 0.14557 1.15104e-18)
(0.0758904 0.129262 -1.29711e-18)
(0.0937159 0.112918 1.29742e-18)
(-1.15664 0.797241 0)
(-0.641707 0.641471 2.90138e-19)
(-0.30397 0.383575 -7.13777e-20)
(-0.170943 0.28004 3.57924e-19)
(-0.105194 0.232585 4.16235e-19)
(-0.0619693 0.203942 -8.57817e-19)
(-0.0282405 0.182787 0)
(0.000105272 0.165061 2.15127e-20)
(0.0247332 0.149006 -3.27832e-18)
(0.046548 0.133693 0)
(0.0661488 0.118535 2.53615e-18)
(0.0839782 0.102994 -1.38134e-18)
(-1.20828 0.434755 0)
(-0.752716 0.500488 4.43185e-19)
(-0.359037 0.316518 9.01038e-19)
(-0.202622 0.236944 -7.12493e-19)
(-0.125967 0.200348 -1.19131e-18)
(-0.0770398 0.178458 2.18704e-18)
(-0.0402101 0.162075 1.20453e-20)
(-0.0101527 0.147857 -1.0313e-18)
(0.0153802 0.13444 1.12381e-18)
(0.0376051 0.121137 -2.40755e-18)
(0.0572168 0.10752 -3.81397e-18)
(0.0747119 0.0931127 3.98235e-18)
(-0.994168 -0.103913 -3.26079e-19)
(-0.691515 0.211129 -1.67119e-18)
(-0.367097 0.201429 3.4264e-19)
(-0.216806 0.175051 0)
(-0.137499 0.160005 0)
(-0.0863065 0.14922 6.93848e-20)
(-0.0482579 0.139503 3.05169e-18)
(-0.0176777 0.129687 2.10652e-18)
(0.0079947 0.119386 0)
(0.0300897 0.108423 2.38072e-18)
(0.0493504 0.0966041 0)
(0.0661976 0.0836098 1.50883e-20)
(0.917818 0.791898 -2.72216e-17)
(0.978116 0.731349 1.17622e-17)
(1.03362 0.666045 -1.33952e-17)
(1.09122 0.602156 -4.81936e-18)
(1.14361 0.534866 -5.1452e-18)
(1.19808 0.469322 0)
(1.24675 0.402165 0)
(1.29397 0.335481 1.30654e-17)
(1.34322 0.263642 -1.40324e-17)
(1.48365 0.214663 0)
(1.55138 0.214339 0)
(1.26592 0.240491 -1.72346e-20)
(0.33891 0.311962 3.69617e-18)
(0.363301 0.2865 0)
(0.38755 0.260613 -9.32145e-21)
(0.411319 0.235076 2.26852e-18)
(0.434876 0.209721 1.2022e-18)
(0.45831 0.185783 5.2181e-18)
(0.482862 0.163746 -7.95421e-18)
(0.513745 0.145846 1.34637e-18)
(0.569419 0.135804 0)
(0.692693 0.147947 0)
(0.900407 0.205412 0)
(1.02024 0.305009 3.63275e-18)
(0.190715 0.175032 9.54663e-19)
(0.206231 0.159071 -2.79475e-18)
(0.221806 0.143192 1.02292e-18)
(0.237425 0.127671 2.2551e-18)
(0.253356 0.112629 -2.25481e-18)
(0.269865 0.0984642 0)
(0.288177 0.0855181 0)
(0.312132 0.0745534 -9.0327e-21)
(0.355416 0.0679486 8.55769e-19)
(0.456888 0.0728685 0)
(0.671605 0.108115 0)
(0.904586 0.233485 -4.06271e-18)
(0.156293 0.142131 -5.73901e-20)
(0.17068 0.127422 2.30847e-18)
(0.185224 0.112834 1.74956e-18)
(0.200062 0.0984628 -1.74986e-18)
(0.215452 0.0843943 0)
(0.231716 0.070775 1.01932e-18)
(0.249711 0.057674 0)
(0.272386 0.0452309 1.76292e-18)
(0.311458 0.0343973 -7.03493e-19)
(0.405716 0.0277184 0)
(0.618778 0.0319913 -1.40774e-18)
(0.846281 0.0754241 5.92737e-18)
(0.144999 0.130694 -1.42084e-18)
(0.159929 0.115404 0)
(0.175145 0.10005 0)
(0.190754 0.0847158 0)
(0.207159 0.0693222 0)
(0.224658 0.0539968 -1.97621e-18)
(0.244051 0.0386587 3.40581e-20)
(0.267805 0.0232171 -1.10904e-18)
(0.306601 0.0069593 0)
(0.400111 -0.0129597 -1.05499e-18)
(0.625039 -0.0463448 1.3034e-18)
(0.915269 -0.0596022 -2.65093e-18)
(0.137373 0.122818 5.27617e-20)
(0.153111 0.106582 -3.00799e-18)
(0.169027 0.0901096 1.69246e-18)
(0.185497 0.0732546 1.09211e-19)
(0.202836 0.0559949 4.6228e-20)
(0.221605 0.0382468 3.01852e-18)
(0.242531 0.0200625 9.36233e-20)
(0.267904 0.000807453 -3.34691e-18)
(0.307188 -0.0217408 -1.31e-18)
(0.399646 -0.0563025 1.00257e-18)
(0.634949 -0.129647 -2.44035e-18)
(0.982987 -0.23228 -6.39276e-18)
(0.129336 0.114565 4.2975e-18)
(0.145587 0.097487 1.58447e-18)
(0.161925 0.0798863 0)
(0.178763 0.061464 0)
(0.196563 0.0421196 4.56785e-20)
(0.215977 0.0217327 -1.90174e-18)
(0.237895 0.000120618 3.12262e-18)
(0.26434 -0.0235831 3.79839e-20)
(0.304153 -0.0527089 1.28861e-18)
(0.395336 -0.102014 0)
(0.630642 -0.213937 2.44687e-20)
(0.980268 -0.419012 2.40341e-20)
(0.120316 0.105479 -1.38646e-18)
(0.136647 0.087877 -1.53259e-18)
(0.152962 0.0692726 1.61976e-18)
(0.169567 0.0494483 -1.77408e-18)
(0.187125 0.0280683 -1.0159e-19)
(0.206287 0.00496251 3.7835e-18)
(0.228181 -0.0203321 -2.05582e-18)
(0.255158 -0.048756 1.07398e-18)
(0.294932 -0.085319 0)
(0.383085 -0.150023 9.01335e-19)
(0.615111 -0.301243 1.11721e-18)
(0.949366 -0.602252 -4.76652e-18)
(0.1105 0.0960179 1.4746e-18)
(0.126568 0.0781396 -1.4745e-18)
(0.142276 0.0589004 -1.61449e-18)
(0.158098 0.0379088 -3.42956e-18)
(0.174563 0.01485 3.57924e-18)
(0.192548 -0.010813 -3.73818e-18)
(0.213209 -0.0396162 0)
(0.238837 -0.0733014 -1.06757e-18)
(0.277088 -0.117853 0)
(0.360449 -0.199016 0)
(0.581244 -0.389684 0)
(0.860302 -0.764662 1.88994e-18)
(0.100399 0.0865542 1.38159e-18)
(0.115767 0.0687734 -2.99777e-18)
(0.13045 0.0492245 3.15082e-18)
(0.144874 0.0275479 3.27451e-18)
(0.159563 0.00322518 1.70414e-18)
(0.175257 -0.0243786 0)
(0.193135 -0.0563754 0)
(0.215598 -0.0950387 1.99019e-18)
(0.249107 -0.147928 0)
(0.321435 -0.245876 -7.71191e-19)
(0.522084 -0.478854 8.69097e-19)
(0.739558 -0.929875 -2.76729e-18)
(0.0904313 0.0774592 -2.81962e-18)
(0.104757 0.0600926 2.96977e-18)
(0.118056 0.0406429 -3.12136e-18)
(0.130651 0.0187546 -8.16027e-18)
(0.142969 -0.00616008 3.24817e-20)
(0.155491 -0.0348973 1.50954e-20)
(0.169066 -0.0690632 -1.81709e-18)
(0.185352 -0.111676 -1.96872e-18)
(0.209783 -0.171569 0)
(0.262467 -0.282491 2.03198e-18)
(0.409126 -0.550411 8.03237e-19)
(0.59332 -1.03532 -2.01162e-18)
(0.0809277 0.0690164 -1.70637e-21)
(0.0939508 0.0523529 0)
(0.105612 0.0333741 0)
(0.116148 0.0117637 1.57535e-18)
(0.125742 -0.012981 4.93599e-18)
(0.134499 -0.0418322 -1.72744e-18)
(0.142561 -0.0765388 5.35376e-20)
(0.150408 -0.120569 -8.68114e-19)
(0.159845 -0.182846 -9.65392e-19)
(0.179617 -0.294576 -1.23741e-18)
(0.244219 -0.572424 0)
(0.29887 -1.46967 1.25448e-18)
(-0.310026 -0.575334 1.45788e-19)
(-0.463094 -0.117266 5.56274e-19)
(-0.316458 0.0636291 9.19215e-20)
(-0.206354 0.10522 0)
(-0.136865 0.117155 9.92984e-19)
(-0.0887239 0.119317 -9.62584e-19)
(-0.0520499 0.11686 -3.10803e-18)
(-0.0223469 0.111652 -2.1811e-18)
(0.00263741 0.10456 5.3756e-20)
(0.0240996 0.0960083 -1.17967e-18)
(0.0426821 0.0861131 2.53688e-18)
(0.0586517 0.0747261 -2.63086e-18)
(-0.179782 -0.404063 0)
(-0.300718 -0.158926 0)
(-0.244604 -0.00768511 -4.92098e-19)
(-0.178409 0.0543518 1.043e-18)
(-0.12607 0.0811088 -2.52621e-18)
(-0.0851732 0.0924879 -1.61703e-18)
(-0.0520882 0.0959191 2.1081e-18)
(-0.0244644 0.0947124 5.6103e-18)
(-0.000857864 0.0905332 -1.14055e-18)
(0.0195801 0.0842491 0)
(0.0372518 0.0762744 2.35777e-20)
(0.0522159 0.0666303 0)
(-0.0919173 -0.267635 -1.63305e-19)
(-0.192836 -0.141716 1.58469e-19)
(-0.182694 -0.0361622 1.1189e-18)
(-0.147151 0.0227925 6.94058e-20)
(-0.110628 0.0541359 1.02102e-18)
(-0.0779368 0.0703231 -9.05029e-20)
(-0.049433 0.0776404 0)
(-0.0245825 0.0794356 -1.08294e-18)
(-0.0027919 0.0776333 -1.14901e-18)
(0.0163741 0.0733473 3.65077e-18)
(0.0330648 0.0671868 -3.70813e-18)
(0.0470698 0.0593892 2.58723e-18)
(-0.0519703 -0.185801 -3.28674e-19)
(-0.12715 -0.116436 6.02836e-19)
(-0.135869 -0.0444212 5.95759e-20)
(-0.11874 0.0048765 -1.05555e-18)
(-0.0942375 0.0352804 -2.20384e-18)
(-0.0689555 0.052999 -7.39884e-20)
(-0.0450943 0.0623507 -2.2533e-18)
(-0.0232527 0.0660933 1.15201e-18)
(-0.00347005 0.0660423 -1.15177e-18)
(0.0143269 0.0633685 -2.38354e-18)
(0.030125 0.0588272 0)
(0.0435614 0.0531676 2.56515e-18)
(0.0721262 0.0614427 2.7523e-18)
(0.0836522 0.0457106 2.86146e-18)
(0.0935614 0.0274862 0)
(0.101985 0.00661147 0)
(0.108824 -0.0172791 1.61901e-18)
(0.113783 -0.0451003 -1.61861e-18)
(0.11612 -0.0783613 8.60403e-19)
(0.11434 -0.120152 2.6371e-18)
(0.105527 -0.177188 0)
(0.0811907 -0.269147 0)
(0.00741363 -0.455286 3.45701e-19)
(-0.417576 -0.905569 -9.93506e-19)
(0.0641693 0.0549092 -2.71613e-18)
(0.0740263 0.0402235 -9.42136e-21)
(0.0821847 0.0229269 0)
(0.0885989 0.00314025 -1.52209e-18)
(0.0929622 -0.0193679 -4.23265e-20)
(0.0946196 -0.0452016 1.56409e-18)
(0.0922845 -0.0754192 0)
(0.0834567 -0.111747 -1.63499e-18)
(0.0630642 -0.157129 0)
(0.0199515 -0.217914 -1.73878e-18)
(-0.0781876 -0.301231 -1.00064e-18)
(-0.365205 -0.324252 -7.7447e-27)
(0.0571066 0.0495968 -3.08014e-21)
(0.0651289 0.035885 -2.7637e-18)
(0.0716044 0.0195672 0)
(0.0762542 0.00104581 2.90717e-18)
(0.0785849 -0.019751 1.51324e-18)
(0.0777197 -0.0430779 3.16235e-20)
(0.0721868 -0.0694507 -3.84718e-18)
(0.0593015 -0.0992916 4.74941e-18)
(0.0344733 -0.132721 -7.97376e-19)
(-0.0109969 -0.168429 3.65948e-18)
(-0.0952019 -0.197343 1.26828e-18)
(-0.247809 -0.158269 -2.12323e-19)
(0.0510679 0.0458872 7.91251e-18)
(0.0569302 0.0326507 0)
(0.0617961 0.0171649 0)
(0.0649709 -7.35045e-05 -2.85789e-18)
(0.0657273 -0.019019 -2.88879e-18)
(0.0631112 -0.0397062 2.93783e-18)
(0.0556871 -0.0621345 6.01559e-18)
(0.0411505 -0.0858829 -3.0773e-18)
(0.0159443 -0.10948 1.51242e-18)
(-0.0250602 -0.128971 -1.55492e-18)
(-0.0891776 -0.133334 -7.75809e-19)
(-0.174868 -0.0878504 -1.78764e-19)
(-0.034843 -0.134286 3.17053e-19)
(-0.0884081 -0.0921541 1.88534e-20)
(-0.102001 -0.0423234 -1.10955e-18)
(-0.0945733 -0.00332658 0)
(-0.0782688 0.0233933 1.61225e-18)
(-0.0589676 0.0403634 3.85943e-18)
(-0.0393075 0.0501598 5.58776e-18)
(-0.0204044 0.0547956 0)
(-0.00265812 0.0557816 0)
(0.0137932 0.0542245 -1.20564e-18)
(0.0290047 0.0511656 1.2082e-18)
(0.0430131 0.0482485 -5.10208e-18)
(-0.0228788 -0.101236 -1.52797e-19)
(-0.0627662 -0.0746791 4.56409e-19)
(-0.0776085 -0.0393871 -1.44913e-18)
(-0.0758491 -0.00855452 0)
(-0.0652481 0.0145022 2.24897e-18)
(-0.0505701 0.0302278 -2.19921e-18)
(-0.0344084 0.0399521 -1.09167e-18)
(-0.0180686 0.045041 1.67208e-20)
(-0.00211577 0.0466861 -1.14547e-18)
(0.0132937 0.0459447 0)
(0.0289434 0.0443228 0)
(0.0470224 0.0459967 5.45469e-18)
(-0.0158207 -0.0789539 0)
(-0.0459528 -0.0614631 -5.87009e-19)
(-0.0599299 -0.0358669 1.13541e-18)
(-0.0611223 -0.0114638 5.60371e-19)
(-0.0543302 0.0081322 -3.32449e-18)
(-0.0431518 0.0222955 1.67359e-18)
(-0.0298768 0.0315275 -3.3689e-18)
(-0.0157826 0.0366558 1.13712e-18)
(-0.00144988 0.038553 1.76305e-20)
(0.0131568 0.0381649 2.16398e-20)
(0.030819 0.037881 -6.57766e-18)
(0.0603528 0.0466798 -7.01193e-18)
(-0.011401 -0.0633094 0)
(-0.0345493 -0.0512829 1.17791e-18)
(-0.0469192 -0.0322818 0)
(-0.0495266 -0.0128765 2.26216e-18)
(-0.0452437 0.00362866 0)
(-0.0367011 0.0161363 1.12195e-18)
(-0.0257945 0.0246193 4.43657e-18)
(-0.0136878 0.0294783 -1.11612e-18)
(-0.000929666 0.0312499 0)
(0.0127613 0.030608 0)
(0.03319 0.0299028 -1.5589e-18)
(0.0875366 0.0442829 2.99741e-18)
(0.0465305 0.0445755 -5.2822e-18)
(0.0495423 0.030218 -1.35031e-18)
(0.0528552 0.0150155 6.77113e-18)
(0.0548104 -0.00110298 -4.16224e-18)
(0.0543448 -0.0182868 5.65772e-18)
(0.0504879 -0.0364689 -5.7154e-18)
(0.0419412 -0.055286 -7.25094e-18)
(0.0268963 -0.073847 0)
(0.00300592 -0.0899711 -1.48513e-18)
(-0.0322567 -0.0990972 0)
(-0.0799057 -0.0920013 0)
(-0.130306 -0.0502984 -3.40503e-19)
(0.0442696 0.0486659 0)
(0.0427307 0.0299187 0)
(0.0445687 0.0141949 -5.3531e-18)
(0.0457136 -0.000912349 1.35082e-18)
(0.0445826 -0.0163808 1.36279e-18)
(0.0402066 -0.0321659 2.80819e-20)
(0.0315374 -0.0477845 3.53441e-18)
(0.0172839 -0.0621449 2.10565e-18)
(-0.00393876 -0.0730371 0)
(-0.0328868 -0.0765035 0)
(-0.0679542 -0.065898 -1.69801e-19)
(-0.0996641 -0.0318495 8.41903e-19)
(0.0447207 0.0621278 0)
(0.0361912 0.031472 -1.46055e-18)
(0.0369025 0.01385 -3.99507e-18)
(0.0376831 -0.000444742 5.28878e-18)
(0.0363067 -0.0143264 5.34025e-18)
(0.0318609 -0.0279684 1.35959e-18)
(0.0235747 -0.0408986 -2.04073e-18)
(0.0106073 -0.0519987 -2.07444e-18)
(-0.00769766 -0.0593048 2.72512e-18)
(-0.0311665 -0.0596207 0)
(-0.0572817 -0.0485111 1.64817e-19)
(-0.0783472 -0.0214182 4.83342e-19)
(0.0409708 0.0897982 -1.31745e-17)
(0.0281015 0.0333264 -6.84415e-18)
(0.0294524 0.0132318 5.37354e-18)
(0.0305078 -8.51248e-05 -6.51438e-18)
(0.0292397 -0.0123999 1.27417e-18)
(0.0250251 -0.0241361 0)
(0.0173881 -0.0348236 -6.4268e-19)
(0.00587144 -0.0434337 -8.17565e-22)
(-0.00971235 -0.0482983 -2.00843e-18)
(-0.0286678 -0.0469763 0)
(-0.0484199 -0.0365711 -1.13593e-18)
(-0.063114 -0.0150974 -1.42976e-18)
(-0.00850658 -0.0519751 -2.98066e-19)
(-0.0265621 -0.0433574 -1.15509e-18)
(-0.0372012 -0.0289478 0)
(-0.0403713 -0.0134107 -2.21846e-18)
(-0.0377351 0.000437166 -5.51945e-19)
(-0.0311763 0.0113472 -2.74e-18)
(-0.0222165 0.0189711 1.10206e-18)
(-0.0118949 0.023387 0)
(-0.00080637 0.024785 0)
(0.0111022 0.0232807 1.22009e-18)
(0.0303357 0.0187505 5.7485e-18)
(0.0908511 -0.00319191 0)
(-0.00651337 -0.043526 2.92268e-19)
(-0.0208085 -0.0371533 0)
(-0.0298441 -0.0259964 -2.25091e-18)
(-0.033118 -0.0134488 5.50498e-19)
(-0.0315612 -0.0018313 -5.50509e-19)
(-0.0264969 0.0076154 3.29063e-18)
(-0.0191431 0.0143743 2.18266e-18)
(-0.0104162 0.018301 -1.0923e-18)
(-0.000970811 0.0193448 0)
(0.00900035 0.0173839 0)
(0.0255126 0.0116495 0)
(0.074583 -0.0186664 0)
(-0.00509316 -0.0371114 -2.86912e-19)
(-0.0165531 -0.0322427 -1.40634e-18)
(-0.0241915 -0.0234535 2.48594e-18)
(-0.0273356 -0.0132287 0)
(-0.0264856 -0.00346109 0)
(-0.0225574 0.00469459 -9.69984e-18)
(-0.0165262 0.0106475 5.39582e-18)
(-0.00920007 0.014121 0)
(-0.00125994 0.0149455 -1.09228e-18)
(0.00685393 0.0129897 2.36491e-18)
(0.0192887 0.00785316 -1.99702e-18)
(0.0542377 -0.0157512 0)
(-0.00404163 -0.032138 2.813e-19)
(-0.0133422 -0.0283455 1.10517e-18)
(-0.0197917 -0.0212956 -2.1861e-18)
(-0.0226995 -0.0128811 1.62509e-18)
(-0.0223078 -0.00463317 -1.60763e-18)
(-0.0192485 0.00240604 -1.0875e-18)
(-0.0143063 0.00763831 -7.42716e-18)
(-0.00818751 0.0107165 -1.06325e-18)
(-0.0015734 0.0114308 1.06919e-18)
(0.0049695 0.00968865 4.61612e-18)
(0.0140353 0.00537309 0)
(0.0378437 -0.01142 0)
(-0.00325901 -0.0282513 0)
(-0.0108656 -0.0252152 0)
(-0.0163276 -0.0194825 2.14333e-18)
(-0.0189517 -0.0124918 -2.11974e-18)
(-0.0188581 -0.00548989 -2.64885e-18)
(-0.016469 0.000603413 9.95909e-18)
(-0.0124163 0.00520934 2.08035e-18)
(-0.00732894 0.00796404 5.23213e-18)
(-0.00183715 0.00864213 0)
(0.00341963 0.00720181 -4.4926e-18)
(0.0100563 0.00372892 -7.27116e-18)
(0.0265311 -0.00807269 0)
(-0.00267759 -0.0252061 0)
(-0.0089287 -0.0227547 2.65572e-19)
(-0.0135903 -0.0180021 -2.65567e-19)
(-0.0159069 -0.0121326 5.21025e-19)
(-0.0160187 -0.00612763 7.78252e-18)
(-0.0141319 -0.000830198 -5.15213e-18)
(-0.010814 0.00325546 1.03087e-18)
(-0.00658517 0.00574453 -4.10499e-18)
(-0.00203231 0.0064336 -1.0326e-18)
(0.00221158 0.00532573 1.09468e-18)
(0.00711772 0.00261826 6.92094e-18)
(0.0186353 -0.00574918 0)
(-0.00222534 -0.0230519 0)
(-0.00745231 -0.0210103 2.6257e-19)
(-0.0114601 -0.0169869 -2.6262e-19)
(-0.0135065 -0.0119574 0)
(-0.0137396 -0.00671138 -4.62018e-18)
(-0.0122296 -0.00202722 -5.08283e-19)
(-0.0094886 0.00166843 -2.0434e-18)
(-0.00594974 0.00397106 -5.09205e-18)
(-0.00214988 0.00471785 4.08371e-18)
(0.00131191 0.00392595 0)
(0.00502534 0.00187657 1.32717e-17)
(0.0130904 -0.00395129 0)
(-0.0019642 -0.0222948 0)
(-0.00641446 -0.020541 2.70927e-19)
(-0.00999562 -0.0169416 1.88929e-18)
(-0.0117872 -0.0124142 5.33541e-19)
(-0.0121231 -0.00758402 3.72508e-18)
(-0.0108364 -0.00324053 -1.0556e-18)
(-0.00852327 0.000294843 5.26443e-18)
(-0.00545992 0.00255062 8.40562e-18)
(-0.00221433 0.00343278 4.21808e-18)
(0.000707627 0.00293596 1.10262e-18)
(0.00360002 0.00141562 -1.64574e-18)
(0.00924723 -0.00272406 0)
(-0.0017972 -0.0244867 0)
(-0.00606244 -0.0227918 0)
(-0.00933788 -0.0191952 -2.54199e-18)
(-0.0111419 -0.0145828 0)
(-0.0114201 -0.00960465 7.86444e-21)
(-0.0103005 -0.00503469 -1.24432e-18)
(-0.00810468 -0.00122184 1.24421e-18)
(-0.00527644 0.00132472 -4.94816e-18)
(-0.00226992 0.00252221 -1.22943e-18)
(0.000369208 0.00233724 1.15931e-17)
(0.00277614 0.00122736 -1.4596e-17)
(0.00672734 -0.00182349 7.73742e-17)
(-0.00186797 -0.0331789 0)
(-0.00673374 -0.0312273 1.9653e-18)
(-0.0100414 -0.0268583 -3.90614e-18)
(-0.0122301 -0.0210689 9.66393e-19)
(-0.0123323 -0.0148142 -9.63027e-18)
(-0.0112527 -0.00882875 6.71443e-18)
(-0.00873991 -0.00379012 -7.6263e-18)
(-0.00573139 -0.000156944 1.90448e-18)
(-0.00249665 0.00180249 -1.51948e-17)
(0.000227806 0.0021203 -1.3644e-17)
(0.00243648 0.00134167 -2.53924e-18)
(0.00526516 -0.00114703 -8.32172e-17)
(-0.00247678 -0.0561057 0)
(-0.00884393 -0.0532115 -1.33219e-17)
(-0.0131661 -0.0465541 8.82929e-18)
(-0.0160357 -0.0376398 0)
(-0.016144 -0.0277386 -2.17261e-18)
(-0.0146747 -0.0180369 -1.08341e-17)
(-0.0113426 -0.0096058 -1.72812e-17)
(-0.00738011 -0.00323116 -8.60517e-18)
(-0.00327288 0.00068238 4.29596e-17)
(7.98909e-05 0.00208293 3.04244e-17)
(0.00237523 0.00177424 0)
(0.00423447 -0.000342467 0)
(-0.00352672 -0.103384 -8.40951e-18)
(-0.0125465 -0.098878 -6.85559e-22)
(-0.0189282 -0.0881358 0)
(-0.0233221 -0.0734559 8.32184e-18)
(-0.0237707 -0.0566003 -8.50525e-18)
(-0.0218559 -0.0396167 -8.48297e-17)
(-0.0172212 -0.0244364 2.87637e-16)
(-0.0117119 -0.0124125 0)
(-0.00605998 -0.00427456 -1.35201e-16)
(-0.00155304 -0.000141397 -1.35477e-16)
(0.00135892 0.00117432 -1.45309e-16)
(0.00274773 -0.000157023 2.51174e-16)
(-0.00890988 0.0911655 3.30451e-17)
(0.017353 0.0299429 8.3122e-18)
(0.0223407 0.0114014 -5.45751e-18)
(0.0241891 -7.79295e-05 0)
(0.0232465 -0.0107401 -6.39797e-18)
(0.0194235 -0.0207594 -3.84662e-18)
(0.0125442 -0.0295827 3.23788e-18)
(0.00245851 -0.036299 1.93336e-18)
(-0.0107129 -0.0395099 0)
(-0.0260806 -0.0374064 3.18892e-19)
(-0.041283 -0.028149 9.52561e-19)
(-0.0519265 -0.0110493 6.21293e-19)
(-0.0221583 0.0732931 5.3367e-17)
(0.01084 0.0248512 -2.24419e-18)
(0.0167008 0.00920496 6.76729e-18)
(0.0189035 -0.000308329 0)
(0.0182436 -0.00936996 0)
(0.0148428 -0.0178474 6.28324e-18)
(0.00873638 -0.0251357 3.76691e-18)
(-2.62138e-05 -0.0303961 -3.15924e-18)
(-0.0111392 -0.0325008 6.29735e-19)
(-0.0236536 -0.0301011 2.8063e-18)
(-0.0355425 -0.0220589 -3.10923e-19)
(-0.0435231 -0.00832708 3.03745e-19)
(-0.0180721 0.0533096 -5.29273e-17)
(0.00735127 0.0187461 0)
(0.01253 0.00708154 0)
(0.0146406 -0.000624006 0)
(0.0141302 -0.00823037 0)
(0.0111144 -0.0153616 6.11829e-18)
(0.00572725 -0.0213764 -1.16702e-17)
(-0.00185681 -0.0255252 3.06815e-18)
(-0.011236 -0.0268786 0)
(-0.0215023 -0.0244643 -2.44667e-18)
(-0.0309507 -0.0175589 -1.05663e-18)
(-0.037084 -0.00642886 -4.47741e-19)
(-0.0136913 0.0382542 5.11195e-17)
(0.00500957 0.0137695 1.05308e-17)
(0.00938416 0.00526508 -6.45746e-18)
(0.0112342 -0.000932818 4.79587e-18)
(0.010772 -0.00727341 0)
(0.00808918 -0.0132526 1.1856e-18)
(0.00334304 -0.0182164 4.20995e-18)
(-0.00321452 -0.0215111 -3.60519e-18)
(-0.01116 -0.0223633 5.99508e-19)
(-0.0196349 -0.0200715 -2.96625e-19)
(-0.0272382 -0.0141762 1.47958e-18)
(-0.0320746 -0.00506449 0)
(-0.01048 0.0278172 5.92984e-20)
(0.00344301 0.0100408 -8.02502e-18)
(0.00700475 0.00381642 6.28542e-18)
(0.00852471 -0.00117947 -1.05606e-17)
(0.0080438 -0.00644693 4.6709e-18)
(0.00563556 -0.0114596 -1.02841e-20)
(0.00144031 -0.0155478 -5.86369e-19)
(-0.00423799 -0.0182012 5.85607e-18)
(-0.0109961 -0.0187005 -5.85715e-19)
(-0.0180499 -0.0166335 0)
(-0.0242512 -0.0115999 1.43749e-19)
(-0.0281212 -0.00406555 -7.15793e-19)
(-0.0081743 0.0205655 -4.66886e-17)
(0.00237294 0.00734202 0)
(0.00518524 0.00271608 0)
(0.00637143 -0.0013503 5.74684e-18)
(0.00582888 -0.00572429 -1.02959e-17)
(0.00364937 -0.00994134 -5.73449e-18)
(-9.50789e-05 -0.0133044 5.73013e-19)
(-0.00502994 -0.0154821 -4.592e-18)
(-0.0108398 -0.0157316 5.72645e-19)
(-0.0167533 -0.0139425 -2.8385e-19)
(-0.0218495 -0.00962141 4.24694e-19)
(-0.0250161 -0.00332286 -1.40834e-19)
(-0.00640171 0.0154363 -8.92484e-17)
(0.00164399 0.00545592 -1.65286e-17)
(0.00381754 0.00192107 2.39923e-18)
(0.00468465 -0.00143937 3.39878e-18)
(0.00405395 -0.00511009 9.02692e-18)
(0.00202386 -0.00867869 1.12977e-18)
(-0.00137975 -0.0114831 -1.12971e-18)
(-0.0057493 -0.0132887 0)
(-0.0108274 -0.0134004 0)
(-0.0158921 -0.0118508 1.96284e-18)
(-0.020141 -0.00814023 2.79762e-19)
(-0.0227818 -0.00278864 5.53731e-19)
(-0.00502237 0.0118861 8.57379e-17)
(0.00118714 0.0042375 -9.12479e-21)
(0.00284631 0.00141938 -9.82447e-18)
(0.00343722 -0.00148314 -1.39913e-17)
(0.00264286 -0.004627 -4.64891e-18)
(0.000644727 -0.00776528 1.1625e-18)
(-0.00263967 -0.0101397 -1.74337e-18)
(-0.00669838 -0.011737 5.80965e-19)
(-0.0113871 -0.0117272 4.63234e-18)
(-0.0159286 -0.0104304 -4.90559e-18)
(-0.0196278 -0.00710792 4.30818e-19)
(-0.0219426 -0.00243786 -7.13429e-19)
(-0.00380491 0.00944184 -7.44289e-17)
(0.00103152 0.00364061 1.40745e-17)
(0.00234259 0.00115762 1.14409e-17)
(0.00261626 -0.00147295 -3.13758e-22)
(0.00154121 -0.00446295 0)
(-0.000779064 -0.00731898 5.45828e-18)
(-0.0043146 -0.00964068 6.81804e-19)
(-0.00863208 -0.0110125 -1.17021e-21)
(-0.0134626 -0.0111189 -1.15587e-17)
(-0.0181 -0.00975825 2.71003e-18)
(-0.0216503 -0.00670209 0)
(-0.0239563 -0.00233327 6.70021e-19)
(-0.00248859 0.00792085 1.82985e-16)
(0.00130809 0.00360423 0)
(0.00245078 0.00117814 2.16062e-18)
(0.00223072 -0.00148937 3.14337e-17)
(0.000507903 -0.00481359 1.88198e-17)
(-0.00288063 -0.00774008 -1.02092e-21)
(-0.00752767 -0.0104758 -3.13199e-18)
(-0.0132308 -0.0117356 9.3818e-18)
(-0.019316 -0.0121444 8.32264e-18)
(-0.0251353 -0.0103564 3.628e-18)
(-0.0294102 -0.00722904 5.17243e-19)
(-0.0321875 -0.00262738 0)
(-0.000905832 0.00694898 -1.23342e-16)
(0.00246348 0.0042161 0)
(0.00352418 0.0017682 0)
(0.00247028 -0.00147551 -3.78604e-17)
(-0.00093445 -0.00567986 -3.78181e-17)
(-0.00678283 -0.00950435 -1.88918e-17)
(-0.0144905 -0.013107 -1.88728e-17)
(-0.0236793 -0.0148236 -3.53294e-17)
(-0.0333467 -0.0154546 -2.35194e-18)
(-0.0424277 -0.0130976 -1.05319e-17)
(-0.0490276 -0.00911509 1.16885e-18)
(-0.0533511 -0.00358437 0)
(0.00141348 0.00631129 -2.72196e-16)
(0.00579066 0.00626309 0)
(0.00737765 0.00432424 0)
(0.00509071 0.000360827 1.86314e-17)
(-0.00112469 -0.00534422 -1.86051e-17)
(-0.0112419 -0.0107531 1.85971e-17)
(-0.0243604 -0.0160312 -1.85692e-17)
(-0.039862 -0.0187788 7.41825e-17)
(-0.0561763 -0.0201354 0)
(-0.0716243 -0.0172324 -4.1422e-17)
(-0.0831605 -0.0121585 -3.21157e-17)
(-0.0911242 -0.00519159 9.13134e-18)
)
;

boundaryField
{
    rotor
    {
        type            fixedValue;
        value           nonuniform List<vector> 
48
(
(0.00660572 0.201784 -0)
(0.0197889 0.20092 -0)
(0.0328873 0.199195 -0)
(0.0458448 0.196618 -0)
(0.0586061 0.193198 -0)
(0.0711164 0.188952 -0)
(0.0833222 0.183896 -0)
(0.0951712 0.178053 -0)
(0.106613 0.171447 -0)
(0.117597 0.164107 -0)
(0.128079 0.156065 -0)
(0.138012 0.147354 -0)
(0.147354 0.138012 -0)
(0.156065 0.128079 -0)
(0.164107 0.117597 -0)
(0.171447 0.106613 -0)
(0.178053 0.0951712 -0)
(0.183896 0.0833222 -0)
(0.188952 0.0711164 -0)
(0.193198 0.0586061 -0)
(0.196618 0.0458448 -0)
(0.199195 0.0328873 -0)
(0.20092 0.0197889 -0)
(0.201784 0.00660572 -0)
(0 0.214625 0)
(0 0.239875 0)
(0 0.265125 0)
(0 0.290375 0)
(0 0.315625 0)
(0 0.340875 0)
(0 0.366125 0)
(0 0.391375 0)
(0 0.416625 0)
(0 0.441875 0)
(0 0.467125 0)
(0 0.492375 0)
(0.214625 3.8523e-10 -0)
(0.239875 4.30551e-10 -0)
(0.265125 4.75872e-10 -0)
(0.290375 5.21193e-10 -0)
(0.315625 5.66514e-10 -0)
(0.340875 6.11835e-10 -0)
(0.366125 6.57157e-10 -0)
(0.391375 7.02478e-10 -0)
(0.416625 7.47799e-10 -0)
(0.441875 7.9312e-10 -0)
(0.467125 8.38441e-10 -0)
(0.492375 8.83762e-10 -0)
)
;
    }
    stator
    {
        type            noSlip;
    }
    front
    {
        type            empty;
    }
    back
    {
        type            empty;
    }
    procBoundary1to0
    {
        type            processor;
        value           nonuniform List<vector> 
20
(
(-0.58215 0.317741 -2.61081e-19)
(-0.409476 0.188749 -1.83986e-19)
(-0.271408 0.098912 -3.34272e-19)
(-0.188532 0.0576156 4.84058e-19)
(-0.136363 0.0395072 -6.354e-19)
(-0.102871 0.0267356 4.65287e-19)
(-0.0802406 0.0190522 3.11576e-19)
(-0.0643257 0.0141576 -6.12774e-19)
(-0.0527565 0.010883 -1.36525e-21)
(-0.044121 0.00858334 5.94661e-19)
(-0.037536 0.00690548 -2.9205e-19)
(-0.0324228 0.00564102 -1.42742e-19)
(-0.0284 0.00466402 -5.65688e-19)
(-0.0252345 0.00389377 5.54661e-19)
(-0.0229488 0.00328062 1.36487e-19)
(-0.0220576 0.00281824 5.64642e-19)
(-0.0240245 0.0025519 -6.61859e-19)
(-0.032193 0.00257357 -1.0123e-18)
(-0.0533356 0.00295439 1.71464e-18)
(-0.0918584 0.00355023 1.75663e-17)
)
;
    }
    procBoundary1to3
    {
        type            processor;
        value           nonuniform List<vector> 
20
(
(0.901597 -0.407541 -5.26483e-19)
(0.327882 -0.357151 0)
(0.162319 -0.24279 -2.23886e-19)
(0.091618 -0.171372 3.67886e-19)
(0.0536854 -0.127768 -3.52427e-19)
(0.034764 -0.0977736 -1.69742e-19)
(0.023925 -0.0769379 0)
(0.017264 -0.0620692 0)
(0.0129369 -0.0511708 3.057e-19)
(0.00998357 -0.0430017 -2.99746e-19)
(0.00789032 -0.0367516 2.92044e-19)
(0.00635307 -0.0318991 -2.86321e-19)
(0.0051946 -0.0280787 0)
(0.00430297 -0.025084 0)
(0.00360464 -0.0229424 0)
(0.00313123 -0.0222048 0)
(0.00286696 -0.0243745 0)
(0.00303329 -0.0331198 0)
(0.00396828 -0.0560239 0)
(0.00575597 -0.102422 8.87933e-18)
)
;
    }
}


// ************************************************************************* //
