/*--------------------------------*- C++ -*----------------------------------*\
  =========                 |
  \\      /  F ield         | OpenFOAM: The Open Source CFD Toolbox
   \\    /   O peration     | Website:  https://openfoam.org
    \\  /    A nd           | Version:  6
     \\/     M anipulation  |
\*---------------------------------------------------------------------------*/
FoamFile
{
    version     2.0;
    format      ascii;
    class       volScalarField;
    location    "500";
    object      k;
}
// * * * * * * * * * * * * * * * * * * * * * * * * * * * * * * * * * * * * * //

dimensions      [0 2 -2 0 0 0 0];

internalField   nonuniform List<scalar> 
768
(
0.899633
0.943467
0.95377
0.956141
0.956769
0.956842
0.956914
0.956887
0.956953
0.957001
0.957087
0.956994
0.911165
0.963216
0.981618
0.986917
0.988352
0.988691
0.98878
0.988778
0.98879
0.988758
0.988776
0.988787
0.911221
0.96649
0.98673
0.992727
0.994333
0.994705
0.99483
0.994854
0.994883
0.99487
0.994885
0.994854
0.910818
0.96726
0.987611
0.993485
0.995035
0.995391
0.995472
0.995468
0.995508
0.995494
0.995513
0.995521
0.91061
0.967823
0.987848
0.993435
0.994806
0.99515
0.99519
0.995281
0.995239
0.995263
0.995226
0.995291
0.910717
0.968582
0.988019
0.993166
0.994464
0.994698
0.994841
0.994779
0.994863
0.994804
0.994914
0.994789
0.91225
0.969741
0.988118
0.993005
0.994095
0.994402
0.994408
0.994405
0.994408
0.994498
0.994411
0.994392
0.913895
0.970949
0.988321
0.992877
0.993779
0.994016
0.994025
0.993975
0.994072
0.99413
0.994062
0.994052
0.915989
0.971844
0.988826
0.992808
0.993541
0.993688
0.993765
0.993785
0.993806
0.993786
0.993716
0.993647
0.917932
0.972748
0.98892
0.992646
0.993367
0.993364
0.993339
0.993419
0.993411
0.993341
0.993427
0.993493
0.918925
0.973936
0.989154
0.992617
0.993236
0.993169
0.993155
0.993186
0.993196
0.9932
0.993228
0.993241
0.932454
0.979198
0.989976
0.992513
0.993037
0.99305
0.992864
0.992716
0.992714
0.992751
0.992887
0.99298
0.956964
0.956988
0.957014
0.956989
0.957038
0.957003
0.956962
0.956908
0.9569
0.956797
0.945364
0.89764
0.988794
0.988785
0.988779
0.988744
0.988736
0.988731
0.988756
0.988748
0.988481
0.985552
0.966148
0.909448
0.994862
0.994847
0.994857
0.994845
0.994839
0.994848
0.994849
0.994835
0.994531
0.991069
0.97014
0.910216
0.995503
0.995469
0.995483
0.995509
0.995538
0.995538
0.995533
0.995522
0.995228
0.991806
0.971076
0.909726
0.995209
0.995225
0.9952
0.995271
0.995256
0.995292
0.995258
0.995269
0.99501
0.991825
0.971731
0.909482
0.994832
0.994814
0.994882
0.994814
0.99487
0.994896
0.99495
0.994916
0.994704
0.991802
0.972363
0.909894
0.99437
0.994473
0.994466
0.994453
0.994457
0.994559
0.994607
0.994581
0.994395
0.991743
0.973688
0.91108
0.994054
0.994086
0.994106
0.994128
0.994134
0.994185
0.994251
0.994185
0.994073
0.991741
0.974772
0.912816
0.993635
0.993657
0.993667
0.993702
0.993708
0.993811
0.993829
0.993818
0.99375
0.991684
0.975742
0.913493
0.993402
0.993406
0.993416
0.993373
0.993434
0.993552
0.993594
0.993554
0.993365
0.991784
0.97659
0.91566
0.993109
0.993033
0.99315
0.993114
0.993039
0.993156
0.993215
0.993162
0.993124
0.991776
0.978793
0.9169
0.992842
0.992868
0.992961
0.992807
0.992704
0.992838
0.992867
0.992806
0.992878
0.991962
0.982059
0.923191
0.976349
0.988745
0.991967
0.992579
0.992638
0.992664
0.9926
0.992453
0.992543
0.992697
0.992715
0.99273
0.990345
0.99179
0.992347
0.992594
0.992622
0.9924
0.992367
0.992284
0.992167
0.992336
0.992351
0.992395
0.992355
0.992258
0.992508
0.992554
0.992398
0.992162
0.991963
0.991891
0.991896
0.991976
0.992117
0.99226
0.992187
0.991935
0.992149
0.992295
0.992022
0.991802
0.991734
0.99169
0.991871
0.992025
0.991903
0.99194
0.992579
0.992618
0.99262
0.992458
0.992403
0.992567
0.992591
0.992652
0.99268
0.992409
0.989334
0.9696
0.992326
0.992356
0.99247
0.992422
0.992261
0.992324
0.99236
0.992394
0.992404
0.992489
0.991812
0.98842
0.992098
0.991973
0.99197
0.991915
0.991941
0.992132
0.992269
0.992072
0.992022
0.992224
0.992379
0.991954
0.991891
0.991894
0.991848
0.991701
0.991882
0.992053
0.99194
0.99169
0.991715
0.99194
0.992019
0.992064
0.991966
0.991732
0.991737
0.991727
0.991663
0.991588
0.991575
0.991533
0.99157
0.9916
0.991598
0.991582
0.991705
0.991504
0.991431
0.991464
0.991446
0.99142
0.991405
0.991375
0.991374
0.991371
0.99138
0.991155
0.991516
0.99128
0.99125
0.991262
0.991259
0.991236
0.991214
0.991212
0.991189
0.991199
0.99096
0.988115
0.991351
0.991092
0.99105
0.991092
0.991108
0.991063
0.99106
0.99106
0.99104
0.990977
0.989099
0.973704
0.991593
0.991592
0.991556
0.991552
0.991573
0.991593
0.991569
0.99153
0.991538
0.991568
0.991629
0.99172
0.991067
0.99131
0.991352
0.991355
0.991374
0.99134
0.991326
0.991368
0.991369
0.99135
0.991392
0.991475
0.987743
0.990523
0.991095
0.991164
0.991184
0.991175
0.991169
0.991198
0.991177
0.991189
0.991201
0.99127
0.972993
0.987907
0.990642
0.99097
0.991
0.991007
0.991009
0.991035
0.991014
0.991026
0.991045
0.991079
0.991183
0.990939
0.990909
0.990929
0.99093
0.990909
0.990914
0.990907
0.990888
0.990562
0.984569
0.935767
0.991021
0.990794
0.99076
0.990792
0.990783
0.990785
0.990782
0.990782
0.990755
0.990325
0.983232
0.929141
0.990874
0.990657
0.990656
0.990654
0.990652
0.99065
0.99064
0.990645
0.990624
0.990185
0.983149
0.92868
0.990745
0.990531
0.99053
0.990532
0.990537
0.990527
0.990523
0.990529
0.990517
0.990106
0.983408
0.929626
0.990628
0.990426
0.990423
0.990431
0.990427
0.990422
0.990409
0.990418
0.9904
0.990033
0.983741
0.930846
0.990526
0.990319
0.990306
0.990325
0.990326
0.990326
0.990309
0.990313
0.990298
0.989975
0.984081
0.932158
0.990432
0.990228
0.990213
0.990216
0.990226
0.990222
0.990217
0.990213
0.990203
0.989913
0.984391
0.933407
0.990335
0.990144
0.990123
0.990128
0.990131
0.990128
0.990126
0.990124
0.990117
0.989857
0.984678
0.934626
0.989408
0.989113
0.989096
0.98906
0.989117
0.989065
0.989104
0.989076
0.989089
0.988846
0.984
0.935745
0.981417
0.980612
0.980536
0.980533
0.980545
0.980534
0.980549
0.980539
0.980546
0.98034
0.976204
0.936477
0.940379
0.937737
0.937542
0.937525
0.937566
0.93757
0.937535
0.937516
0.93753
0.937404
0.935287
0.911269
0.842391
0.840814
0.840679
0.840625
0.840615
0.840633
0.840535
0.840445
0.840452
0.840399
0.838951
0.823862
0.935812
0.983228
0.990053
0.99079
0.990858
0.990852
0.990866
0.990887
0.990872
0.990862
0.990863
0.990911
0.929364
0.981835
0.989756
0.990631
0.99072
0.990726
0.990727
0.990745
0.990732
0.99074
0.990743
0.99078
0.92902
0.981775
0.989645
0.990508
0.990588
0.99061
0.990592
0.990608
0.990604
0.990615
0.990616
0.990654
0.930016
0.982073
0.989597
0.990398
0.990469
0.990485
0.990478
0.990493
0.99049
0.990497
0.990502
0.990531
0.931244
0.982471
0.989572
0.990307
0.990362
0.990373
0.990379
0.990384
0.990382
0.990391
0.990393
0.990424
0.932453
0.982855
0.989551
0.990209
0.990262
0.990276
0.990281
0.990275
0.990293
0.990287
0.990291
0.99031
0.933681
0.983228
0.989532
0.990126
0.990172
0.990188
0.990187
0.990182
0.990193
0.990185
0.990188
0.99021
0.934887
0.983573
0.989511
0.990046
0.990086
0.9901
0.990099
0.990103
0.990108
0.990101
0.990108
0.990123
0.936073
0.98308
0.988556
0.989013
0.989064
0.98906
0.989069
0.989067
0.989076
0.989073
0.98907
0.989089
0.937082
0.975891
0.980139
0.980493
0.980525
0.980542
0.980537
0.980545
0.980559
0.980569
0.980567
0.980577
0.914055
0.935022
0.9373
0.937503
0.937526
0.937577
0.937553
0.937554
0.937624
0.937613
0.937596
0.937617
0.825518
0.839086
0.840329
0.840429
0.840475
0.840554
0.840564
0.840522
0.840692
0.840663
0.840583
0.840876
)
;

boundaryField
{
    rotor
    {
        type            kqRWallFunction;
        value           nonuniform List<scalar> 
48
(
0.899633
0.943467
0.95377
0.956141
0.956769
0.956842
0.956914
0.956887
0.956953
0.957001
0.957087
0.956994
0.956964
0.956988
0.957014
0.956989
0.957038
0.957003
0.956962
0.956908
0.9569
0.956797
0.945364
0.89764
0.899633
0.911165
0.911221
0.910818
0.91061
0.910717
0.91225
0.913895
0.915989
0.917932
0.918925
0.932454
0.89764
0.909448
0.910216
0.909726
0.909482
0.909894
0.91108
0.912816
0.913493
0.91566
0.9169
0.923191
)
;
    }
    stator
    {
        type            kqRWallFunction;
        value           nonuniform List<scalar> 
48
(
0.842391
0.840814
0.840679
0.840625
0.840615
0.840633
0.840535
0.840445
0.840452
0.840399
0.838951
0.823862
0.825518
0.839086
0.840329
0.840429
0.840475
0.840554
0.840564
0.840522
0.840692
0.840663
0.840583
0.840876
0.935812
0.929364
0.92902
0.930016
0.931244
0.932453
0.933681
0.934887
0.936073
0.937082
0.914055
0.825518
0.935767
0.929141
0.92868
0.929626
0.930846
0.932158
0.933407
0.934626
0.935745
0.936477
0.911269
0.823862
)
;
    }
    front
    {
        type            empty;
    }
    back
    {
        type            empty;
    }
    procBoundary0to1
    {
        type            processor;
        value           nonuniform List<scalar> 
20
(
0.969784
0.988279
0.991605
0.991993
0.991663
0.99145
0.991239
0.991066
0.99091
0.99078
0.990657
0.990538
0.990424
0.99032
0.990218
0.990126
0.98909
0.980582
0.93766
0.841025
)
;
    }
    procBoundary0to2
    {
        type            processor;
        value           nonuniform List<scalar> 
20
(
0.976272
0.990225
0.992408
0.992228
0.991969
0.991718
0.991528
0.991356
0.991178
0.991034
0.990886
0.990763
0.99063
0.990532
0.990428
0.990331
0.989403
0.981411
0.940366
0.842357
)
;
    }
}


// ************************************************************************* //
