/*--------------------------------*- C++ -*----------------------------------*\
  =========                 |
  \\      /  F ield         | OpenFOAM: The Open Source CFD Toolbox
   \\    /   O peration     | Website:  https://openfoam.org
    \\  /    A nd           | Version:  6
     \\/     M anipulation  |
\*---------------------------------------------------------------------------*/
FoamFile
{
    version     2.0;
    format      ascii;
    class       volScalarField;
    location    "1000";
    object      epsilon;
}
// * * * * * * * * * * * * * * * * * * * * * * * * * * * * * * * * * * * * * //

dimensions      [0 2 -3 0 0 0 0];

internalField   nonuniform List<scalar> 
768
(
491.55
288.322
293.058
294.151
294.441
294.475
294.508
294.495
294.526
294.548
294.588
294.545
448.395
131.221
80.1478
64.5597
59.5158
57.722
57.0043
56.6744
56.5704
56.5364
56.5123
56.5341
405.796
107.799
48.3784
31.7142
26.9433
25.5742
25.1897
25.0936
25.061
25.0396
25.0484
25.0759
370.31
99.3578
41.5271
26.1197
21.9429
20.8315
20.5462
20.4757
20.4557
20.4505
20.4536
20.4612
340.601
92.259
38.3414
24.482
20.8856
19.9672
19.7442
19.6932
19.6829
19.6795
19.6802
19.6808
315.451
86.1226
36.03
23.6118
20.5046
19.7462
19.566
19.5306
19.5236
19.5237
19.5239
19.5254
294.456
80.7664
34.1368
22.949
20.2735
19.64
19.4979
19.4644
19.4593
19.4583
19.4595
19.4632
276.218
75.956
32.5103
22.4423
20.1033
19.5667
19.4505
19.4253
19.4225
19.4228
19.4223
19.4274
260.38
72.0962
31.2306
22.0497
19.9727
19.5117
19.4139
19.399
19.3943
19.3902
19.3943
19.3978
246.291
69.4982
30.3981
21.7677
19.8716
19.4635
19.3752
19.3556
19.3526
19.3557
19.3625
19.3626
233.363
68.7969
29.8614
21.5252
19.7784
19.4196
19.3469
19.3332
19.3352
19.339
19.3291
19.3205
226.309
63.8707
28.0594
21.0502
19.6574
19.3728
19.3152
19.3061
19.3059
19.3074
19.3034
19.3058
294.531
294.542
294.554
294.542
294.565
294.549
294.53
294.505
294.501
294.454
289.192
489.917
56.5543
56.6024
56.6386
56.6895
56.7132
56.731
56.7187
57.1151
60.6965
79.0432
141.781
447.128
25.0898
25.1056
25.1177
25.1266
25.1193
25.1252
25.1471
25.5946
28.7345
44.6967
103.247
405.125
20.4655
20.4697
20.4731
20.4767
20.4781
20.4783
20.4806
20.8177
23.2767
37.0291
90.2413
369.644
19.682
19.6825
19.6841
19.6853
19.6871
19.6868
19.6896
19.9365
21.9267
33.7553
81.6644
339.969
19.5233
19.5239
19.5218
19.5231
19.5187
19.5216
19.5199
19.7061
21.3539
31.5557
75.2082
315.024
19.4655
19.4657
19.4632
19.46
19.4607
19.462
19.4665
19.6004
20.9524
29.7751
69.4165
293.89
19.4275
19.4241
19.4254
19.4238
19.4237
19.4263
19.4263
19.5366
20.6192
28.2461
65.2827
275.729
19.3896
19.3868
19.3897
19.3943
19.3986
19.3971
19.3978
19.4753
20.374
26.9972
60.7087
259.317
19.3589
19.3554
19.3578
19.363
19.3638
19.3687
19.3725
19.4365
20.1479
25.7744
56.9616
245.377
19.3242
19.3232
19.3222
19.3324
19.3391
19.3378
19.3465
19.4022
19.9743
24.7904
52.7956
232.592
19.3072
19.3003
19.2988
19.3104
19.3177
19.3091
19.3157
19.3649
19.7812
23.545
47.8425
222.945
61.9977
35.0174
23.3246
20.2012
19.4836
19.3216
19.279
19.2758
19.2774
19.2719
19.2786
19.2856
30.3513
24.0861
20.7582
19.6456
19.3503
19.2719
19.2471
19.2434
19.2521
19.2619
19.2573
19.2574
22.1262
20.6546
19.7358
19.3799
19.2674
19.2343
19.2319
19.237
19.2447
19.2463
19.2465
19.2352
19.9734
19.6226
19.3701
19.2651
19.2212
19.2022
19.1972
19.2063
19.2126
19.211
19.2205
19.211
19.2815
19.2721
19.2765
19.2845
19.2805
19.2784
19.2912
19.3242
19.5256
21.246
31.704
88.6589
19.2605
19.2531
19.2587
19.2655
19.2645
19.2701
19.2774
19.287
19.3667
19.9738
23.2512
34.8429
19.2301
19.2284
19.2212
19.2334
19.2432
19.2409
19.2498
19.2604
19.2915
19.4784
20.3805
22.8537
19.2045
19.2019
19.1921
19.1947
19.2057
19.2119
19.2106
19.2273
19.247
19.2988
19.5289
20.0857
19.4006
19.3006
19.233
19.2024
19.1886
19.1805
19.1784
19.18
19.1818
19.1824
19.1829
19.3376
19.2382
19.1992
19.1777
19.1685
19.1648
19.1611
19.1602
19.1595
19.1603
19.1604
19.3795
20.5428
19.1825
19.1578
19.1491
19.1463
19.1453
19.1428
19.1423
19.1419
19.1422
19.2472
20.5082
26.8227
19.1566
19.1342
19.1289
19.1287
19.1285
19.1263
19.1263
19.1267
19.1471
19.5829
24.4489
49.9928
19.3794
19.2247
19.1832
19.1781
19.1796
19.1817
19.1825
19.1885
19.195
19.2135
19.2767
19.4087
20.6463
19.5245
19.2155
19.1665
19.1608
19.1604
19.1602
19.1627
19.1669
19.1724
19.1904
19.2234
27.3322
20.9237
19.3983
19.1723
19.1454
19.143
19.1424
19.143
19.1456
19.1478
19.1533
19.1642
51.2532
24.6547
19.8388
19.2044
19.1338
19.1273
19.1271
19.1274
19.1286
19.1293
19.1314
19.1368
19.1378
19.1172
19.1137
19.1133
19.113
19.1118
19.1119
19.1136
19.1697
20.1925
32.0378
155.687
19.1225
19.1028
19.0998
19.0998
19.0997
19.0991
19.0989
19.1015
19.1689
20.3623
33.3342
148.815
19.1089
19.0899
19.0879
19.0872
19.0875
19.087
19.0863
19.0888
19.1532
20.3043
32.7761
143.83
19.0964
19.0782
19.0767
19.076
19.0761
19.0755
19.075
19.0773
19.1339
20.1807
31.8519
139.478
19.0851
19.0676
19.0663
19.0655
19.0651
19.0646
19.0644
19.0663
19.1145
20.0504
30.9278
135.453
19.0749
19.0572
19.0555
19.0556
19.0553
19.0549
19.0548
19.0563
19.0971
19.9313
30.0672
131.688
19.0653
19.0477
19.0461
19.0459
19.0464
19.0459
19.0461
19.0468
19.0815
19.8252
29.2826
128.129
19.5592
19.6153
19.6217
19.6219
19.6235
19.623
19.6227
19.6223
19.6517
20.3314
29.2079
124.764
22.4954
22.6073
22.6246
22.6226
22.631
22.6276
22.6297
22.6254
22.6538
23.3126
31.5747
121.564
34.6066
34.9118
34.9528
34.9509
34.9824
34.9731
34.9711
34.953
34.9656
35.4613
42.1419
118.462
72.3934
72.6321
72.6309
72.6054
72.7264
72.676
72.6867
72.6131
72.5938
72.7468
75.489
110.758
249.074
248.374
248.315
248.291
248.286
248.294
248.251
248.211
248.214
248.19
247.55
240.901
155.698
31.6866
20.4339
19.2456
19.1241
19.1129
19.112
19.1129
19.1137
19.1133
19.1139
19.1178
148.869
32.9792
20.595
19.2502
19.1122
19.0998
19.0984
19.0996
19.0994
19.0991
19.0997
19.1035
143.909
32.5227
20.5287
19.2309
19.0993
19.0871
19.0861
19.0868
19.0862
19.0858
19.0867
19.0902
139.566
31.6931
20.3921
19.2033
19.0862
19.0754
19.0748
19.0754
19.0751
19.0745
19.0747
19.0783
135.54
30.8306
20.2486
19.1756
19.0736
19.0646
19.064
19.0648
19.0647
19.0641
19.0646
19.0673
131.751
30.0141
20.114
19.1498
19.0621
19.0549
19.0543
19.055
19.0547
19.0545
19.0547
19.0577
128.185
29.2572
19.9935
19.1269
19.0515
19.0457
19.0453
19.046
19.0455
19.0457
19.046
19.048
124.816
29.1148
20.4758
19.6884
19.6214
19.6159
19.6153
19.6157
19.6152
19.6154
19.6159
19.619
121.628
31.4257
23.4144
22.6732
22.6084
22.6011
22.5976
22.5996
22.5974
22.6002
22.6001
22.5879
118.577
41.8362
35.4872
34.9212
34.8645
34.8552
34.8434
34.8403
34.8327
34.8434
34.8539
34.8473
111.266
75.2198
72.6294
72.3996
72.3646
72.3656
72.3385
72.3363
72.3113
72.3667
72.392
72.3817
241.628
247.609
248.16
248.204
248.224
248.259
248.264
248.245
248.32
248.308
248.272
248.402
)
;

boundaryField
{
    rotor
    {
        Cmu             0.09;
        kappa           0.41;
        E               9.8;
        type            epsilonWallFunction;
        value           nonuniform List<scalar> 
48
(
491.55
288.322
293.058
294.151
294.441
294.475
294.508
294.495
294.526
294.548
294.588
294.545
294.531
294.542
294.554
294.542
294.565
294.549
294.53
294.505
294.501
294.454
289.192
489.917
491.55
448.395
405.796
370.31
340.601
315.451
294.456
276.218
260.38
246.291
233.363
226.309
489.917
447.128
405.125
369.644
339.969
315.024
293.89
275.729
259.317
245.377
232.592
222.945
)
;
    }
    stator
    {
        Cmu             0.09;
        kappa           0.41;
        E               9.8;
        type            epsilonWallFunction;
        value           nonuniform List<scalar> 
48
(
249.074
248.374
248.315
248.291
248.286
248.294
248.251
248.211
248.214
248.19
247.55
240.901
241.628
247.609
248.16
248.204
248.224
248.259
248.264
248.245
248.32
248.308
248.272
248.402
155.698
148.869
143.909
139.566
135.54
131.751
128.185
124.816
121.628
118.577
111.266
241.628
155.687
148.815
143.83
139.478
135.453
131.688
128.129
124.764
121.564
118.462
110.758
240.901
)
;
    }
    front
    {
        type            empty;
    }
    back
    {
        type            empty;
    }
    procBoundary0to1
    {
        type            processor;
        value           nonuniform List<scalar> 
20
(
89.9387
35.3649
22.9871
20.1168
19.414
19.224
19.1636
19.1357
19.1177
19.1028
19.0895
19.0778
19.0669
19.057
19.0475
19.6182
22.5872
34.848
72.3862
248.468
)
;
    }
    procBoundary0to2
    {
        type            processor;
        value           nonuniform List<scalar> 
20
(
61.7741
30.0984
22.0217
19.9479
19.3958
19.2395
19.1849
19.1583
19.1393
19.124
19.1103
19.0979
19.0867
19.076
19.0663
19.5595
22.4942
34.6077
72.3997
249.059
)
;
    }
}


// ************************************************************************* //
