/*--------------------------------*- C++ -*----------------------------------*\
  =========                 |
  \\      /  F ield         | OpenFOAM: The Open Source CFD Toolbox
   \\    /   O peration     | Website:  https://openfoam.org
    \\  /    A nd           | Version:  6
     \\/     M anipulation  |
\*---------------------------------------------------------------------------*/
FoamFile
{
    version     2.0;
    format      ascii;
    class       volScalarField;
    location    "1000";
    object      k;
}
// * * * * * * * * * * * * * * * * * * * * * * * * * * * * * * * * * * * * * //

dimensions      [0 2 -2 0 0 0 0];

internalField   nonuniform List<scalar> 
768
(
0.707451
0.742823
0.749179
0.758488
0.753096
0.766541
0.781408
0.778639
0.750728
0.763152
0.785679
0.796564
0.614186
0.856645
0.94213
0.965555
0.971863
0.974749
0.975849
0.97579
0.974385
0.9746
0.975248
0.975621
0.606556
0.880841
0.963693
0.982224
0.987076
0.988574
0.989057
0.989197
0.989114
0.98913
0.989151
0.989164
0.612766
0.886538
0.967821
0.984785
0.989097
0.990333
0.99069
0.990818
0.990846
0.990858
0.990831
0.990839
0.620411
0.891151
0.969597
0.985201
0.989108
0.990099
0.990412
0.990514
0.990584
0.990571
0.99059
0.990581
0.639885
0.898222
0.971217
0.985388
0.988638
0.989564
0.989771
0.989882
0.989866
0.98991
0.989883
0.989881
0.65243
0.90546
0.973071
0.985459
0.988268
0.988939
0.989128
0.989098
0.989087
0.989137
0.989073
0.989022
0.671815
0.915592
0.97553
0.98566
0.987823
0.988321
0.988436
0.988435
0.988406
0.988426
0.98833
0.988225
0.686566
0.925982
0.978132
0.985986
0.98748
0.987744
0.987766
0.98774
0.987796
0.987818
0.987655
0.987511
0.685486
0.930166
0.980162
0.986191
0.987257
0.987343
0.987266
0.987236
0.987191
0.987127
0.987037
0.987071
0.691648
0.933389
0.98197
0.986438
0.986961
0.986807
0.986632
0.986516
0.986406
0.98638
0.986383
0.986514
0.802632
0.9609
0.985287
0.986595
0.986493
0.98634
0.986064
0.985772
0.985689
0.985705
0.985774
0.985975
0.773888
0.760373
0.77787
0.780525
0.783661
0.799895
0.798265
0.794533
0.775333
0.744011
0.700073
0.595642
0.974646
0.974336
0.974971
0.975614
0.976223
0.977394
0.977892
0.977912
0.975166
0.954965
0.854723
0.637526
0.989081
0.989068
0.989092
0.989147
0.989236
0.989378
0.989411
0.989308
0.987961
0.976243
0.899301
0.628717
0.990803
0.990802
0.990813
0.990823
0.990838
0.990871
0.990882
0.990803
0.989715
0.980245
0.90952
0.616756
0.99057
0.990541
0.990565
0.990574
0.99061
0.990602
0.990681
0.990544
0.989696
0.981288
0.914956
0.631897
0.989832
0.989882
0.989846
0.989877
0.98979
0.989894
0.989909
0.989971
0.989167
0.981952
0.920401
0.637292
0.989067
0.989095
0.989106
0.989012
0.989025
0.989078
0.989252
0.989232
0.988762
0.983087
0.924968
0.647876
0.988203
0.988215
0.988214
0.988226
0.988249
0.988356
0.988532
0.988624
0.988456
0.984267
0.93572
0.66496
0.987478
0.987458
0.987468
0.9875
0.987572
0.987695
0.987911
0.988114
0.988242
0.985961
0.942172
0.688381
0.987058
0.986962
0.987001
0.987055
0.987043
0.987107
0.987386
0.987654
0.988042
0.987274
0.951464
0.695732
0.986429
0.986381
0.986536
0.986497
0.986491
0.986568
0.986794
0.987053
0.987775
0.98883
0.964032
0.726898
0.985993
0.985879
0.985962
0.985856
0.985854
0.985994
0.986198
0.986584
0.987478
0.990524
0.996559
0.782186
0.973091
0.992493
0.988491
0.986611
0.985935
0.985725
0.985575
0.985377
0.985297
0.985248
0.985253
0.985459
0.997726
0.991167
0.987494
0.986034
0.985528
0.985133
0.984968
0.984849
0.984796
0.984809
0.984692
0.984931
0.991348
0.988122
0.986284
0.985443
0.984946
0.984426
0.984197
0.984294
0.984342
0.984277
0.98425
0.984514
0.987294
0.985876
0.985033
0.984687
0.984287
0.983834
0.983705
0.983848
0.983933
0.984051
0.984113
0.984162
0.985502
0.985363
0.985405
0.985307
0.985327
0.985448
0.9855
0.985829
0.986779
0.990052
1.00114
0.943783
0.984995
0.984838
0.98496
0.985034
0.984988
0.984962
0.984981
0.985183
0.985797
0.987783
0.992815
0.996624
0.984427
0.984214
0.984379
0.984511
0.98447
0.984497
0.984706
0.984705
0.985051
0.98602
0.988164
0.991117
0.984124
0.984109
0.984069
0.984034
0.984035
0.984196
0.984242
0.984194
0.984385
0.984752
0.985592
0.986765
0.985093
0.984317
0.983934
0.983738
0.983553
0.983391
0.983344
0.983343
0.983378
0.983408
0.983375
0.983108
0.984004
0.983454
0.983229
0.98315
0.983067
0.983002
0.982974
0.982957
0.982963
0.982957
0.982576
0.980582
0.983366
0.982885
0.982753
0.982716
0.982677
0.982638
0.982619
0.982616
0.982606
0.982428
0.980208
0.96957
0.98292
0.982459
0.982358
0.982356
0.982343
0.982309
0.982308
0.982308
0.982258
0.981488
0.973446
0.923082
0.983075
0.983317
0.983392
0.983414
0.983452
0.983502
0.98351
0.983526
0.983635
0.983842
0.984184
0.984687
0.980284
0.982218
0.98285
0.982974
0.98301
0.983016
0.983031
0.983082
0.983148
0.983241
0.98339
0.983608
0.968558
0.979054
0.982033
0.982552
0.982631
0.982642
0.982656
0.982701
0.98273
0.982778
0.982835
0.982972
0.919799
0.970744
0.980609
0.982093
0.982284
0.98231
0.982324
0.982363
0.982373
0.982395
0.982419
0.982519
0.982554
0.982119
0.982043
0.982039
0.982027
0.982011
0.982014
0.982009
0.981895
0.98017
0.959381
0.762042
0.982233
0.981819
0.981755
0.981765
0.981751
0.981747
0.981749
0.981749
0.9816
0.979413
0.952425
0.70208
0.981948
0.981553
0.981514
0.981507
0.981498
0.981493
0.981491
0.981492
0.981345
0.979108
0.951664
0.698411
0.981695
0.98131
0.98127
0.98127
0.981271
0.981265
0.981263
0.981267
0.981136
0.979033
0.952784
0.702413
0.981467
0.981095
0.981061
0.981062
0.98106
0.981054
0.981046
0.981049
0.980932
0.979011
0.954341
0.706913
0.981259
0.980892
0.980855
0.980863
0.980864
0.980863
0.980852
0.980853
0.980751
0.97902
0.955897
0.712116
0.980998
0.980626
0.980589
0.98058
0.980594
0.980586
0.980587
0.98058
0.980495
0.978926
0.957261
0.716957
0.979857
0.979382
0.979319
0.979307
0.979329
0.979314
0.979325
0.979316
0.979246
0.977785
0.957219
0.721933
0.973432
0.972558
0.972445
0.972347
0.972461
0.972371
0.972446
0.972404
0.972357
0.970813
0.949832
0.724114
0.944086
0.942068
0.9417
0.941542
0.94161
0.941579
0.941665
0.941654
0.941632
0.939949
0.916556
0.707318
0.826803
0.822027
0.82121
0.820718
0.820346
0.820479
0.820662
0.820535
0.82059
0.819212
0.796818
0.643948
0.52339
0.522558
0.52191
0.521336
0.519893
0.519102
0.519085
0.517954
0.517422
0.517106
0.511947
0.4722
0.762199
0.956797
0.97889
0.981643
0.981971
0.982004
0.982022
0.982052
0.982057
0.982057
0.982066
0.982149
0.704673
0.949705
0.977901
0.981287
0.981692
0.981737
0.981747
0.98177
0.981766
0.98177
0.98177
0.981853
0.701076
0.948721
0.977592
0.981034
0.981436
0.981488
0.981488
0.981507
0.981505
0.981508
0.981514
0.98158
0.703731
0.949701
0.977579
0.980836
0.981205
0.981254
0.981256
0.981271
0.981268
0.981269
0.981269
0.981342
0.708279
0.951233
0.977671
0.980671
0.980994
0.981036
0.981044
0.981052
0.981053
0.981049
0.981056
0.981112
0.71283
0.952812
0.97778
0.980513
0.980801
0.98084
0.980849
0.980846
0.980856
0.980848
0.980845
0.980911
0.717701
0.954267
0.977802
0.980287
0.980537
0.980576
0.980577
0.980577
0.980581
0.980575
0.98058
0.980625
0.722425
0.954401
0.976751
0.97906
0.979289
0.979326
0.979325
0.979331
0.979329
0.97933
0.979327
0.97937
0.725065
0.947516
0.969841
0.972192
0.972425
0.972482
0.972456
0.972507
0.97246
0.972525
0.972482
0.972535
0.709608
0.915468
0.939159
0.941604
0.941863
0.941967
0.941947
0.941987
0.941988
0.9421
0.942028
0.942002
0.647346
0.797822
0.818952
0.821017
0.821324
0.821638
0.821785
0.82177
0.822178
0.82266
0.822058
0.821595
0.473286
0.511996
0.516679
0.517185
0.51757
0.518048
0.519359
0.519769
0.520899
0.522523
0.521505
0.520556
)
;

boundaryField
{
    rotor
    {
        type            kqRWallFunction;
        value           nonuniform List<scalar> 
48
(
0.707451
0.742823
0.749179
0.758488
0.753096
0.766541
0.781408
0.778639
0.750728
0.763152
0.785679
0.796564
0.773888
0.760373
0.77787
0.780525
0.783661
0.799895
0.798265
0.794533
0.775333
0.744011
0.700073
0.595642
0.707451
0.614186
0.606556
0.612766
0.620411
0.639885
0.65243
0.671815
0.686566
0.685486
0.691648
0.802632
0.595642
0.637526
0.628717
0.616756
0.631897
0.637292
0.647876
0.66496
0.688381
0.695732
0.726898
0.782186
)
;
    }
    stator
    {
        type            kqRWallFunction;
        value           nonuniform List<scalar> 
48
(
0.52339
0.522558
0.52191
0.521336
0.519893
0.519102
0.519085
0.517954
0.517422
0.517106
0.511947
0.4722
0.473286
0.511996
0.516679
0.517185
0.51757
0.518048
0.519359
0.519769
0.520899
0.522523
0.521505
0.520556
0.762199
0.704673
0.701076
0.703731
0.708279
0.71283
0.717701
0.722425
0.725065
0.709608
0.647346
0.473286
0.762042
0.70208
0.698411
0.702413
0.706913
0.712116
0.716957
0.721933
0.724114
0.707318
0.643948
0.4722
)
;
    }
    front
    {
        type            empty;
    }
    back
    {
        type            empty;
    }
    procBoundary0to1
    {
        type            processor;
        value           nonuniform List<scalar> 
20
(
0.944724
0.996829
0.991056
0.986846
0.984691
0.983571
0.982925
0.982471
0.982119
0.981819
0.981556
0.981315
0.981092
0.980888
0.980611
0.979354
0.972514
0.942
0.821606
0.520603
)
;
    }
    procBoundary0to2
    {
        type            processor;
        value           nonuniform List<scalar> 
20
(
0.971766
0.99704
0.991213
0.987192
0.985068
0.984021
0.983397
0.98295
0.982582
0.982266
0.981989
0.98173
0.981501
0.981282
0.981019
0.979872
0.973427
0.94412
0.826959
0.523742
)
;
    }
}


// ************************************************************************* //
