/*--------------------------------*- C++ -*----------------------------------*\
  =========                 |
  \\      /  F ield         | OpenFOAM: The Open Source CFD Toolbox
   \\    /   O peration     | Website:  https://openfoam.org
    \\  /    A nd           | Version:  6
     \\/     M anipulation  |
\*---------------------------------------------------------------------------*/
FoamFile
{
    version     2.0;
    format      ascii;
    class       volScalarField;
    location    "1000";
    object      nut;
}
// * * * * * * * * * * * * * * * * * * * * * * * * * * * * * * * * * * * * * //

dimensions      [0 2 -1 0 0 0 0];

internalField   nonuniform List<scalar> 
768
(
9.16362e-05
0.000172241
0.00017237
0.000176023
0.000173359
0.000179583
0.000186596
0.000185283
0.00017222
0.000177954
0.00018859
0.00019388
7.57148e-05
0.000503315
0.000996718
0.00129968
0.0014283
0.00148145
0.00150349
0.00151206
0.00151048
0.00151205
0.00151471
0.00151528
8.15974e-05
0.000647775
0.0017277
0.00273785
0.00325456
0.00343922
0.00349512
0.00350951
0.00351347
0.0035166
0.00351551
0.00351175
9.1257e-05
0.000711927
0.00203002
0.00334162
0.00401261
0.00423725
0.00429918
0.00431511
0.00431957
0.00432077
0.00431989
0.00431835
0.000101708
0.000774705
0.00220677
0.00356817
0.00421583
0.00441857
0.00447132
0.0044838
0.00448679
0.00448745
0.00448746
0.00448725
0.000116819
0.000843126
0.00235619
0.00370108
0.00429008
0.0044632
0.00450621
0.00451538
0.00451685
0.00451724
0.00451693
0.00451658
0.000130104
0.000913588
0.00249637
0.00380851
0.00433575
0.00448167
0.00451606
0.00452355
0.00452463
0.00452534
0.00452447
0.00452313
0.000147058
0.000993308
0.00263452
0.00389609
0.00436852
0.00449284
0.00452073
0.00452659
0.00452698
0.00452709
0.00452632
0.00452417
0.000162929
0.00107037
0.00275713
0.00396808
0.00439402
0.00450023
0.00452313
0.00452637
0.00452795
0.00452911
0.00452667
0.00452454
0.000171708
0.00112044
0.00284441
0.00402116
0.00441439
0.00450771
0.00452756
0.00453187
0.00453216
0.00453084
0.00452842
0.00452871
0.000184493
0.00113972
0.00290623
0.00406851
0.00443254
0.00451302
0.00452836
0.00453051
0.00452904
0.0045279
0.00453025
0.00453346
0.000256197
0.00130106
0.00311379
0.00416163
0.00445559
0.00451964
0.00453058
0.00453003
0.00452932
0.00452911
0.00453068
0.00453197
0.000183007
0.000176664
0.000184881
0.000186152
0.000187637
0.000195502
0.000194718
0.000192919
0.00018371
0.000169193
0.000152526
6.51763e-05
0.00151172
0.00150947
0.00151047
0.00151111
0.00151237
0.00151552
0.00151739
0.00150692
0.00141006
0.00103837
0.00046374
8.181e-05
0.0035092
0.0035069
0.00350539
0.00350453
0.00350619
0.00350637
0.00350354
0.00344158
0.00305717
0.00191904
0.000704975
8.78141e-05
0.00431713
0.00431622
0.00431562
0.00431493
0.00431477
0.00431501
0.00431463
0.00424408
0.0037874
0.00233544
0.000825015
9.2616e-05
0.00448687
0.0044865
0.00448634
0.00448615
0.00448607
0.00448607
0.00448614
0.00442935
0.00402043
0.00256741
0.000922593
0.000105705
0.0045166
0.00451693
0.00451708
0.00451707
0.00451728
0.00451757
0.00451809
0.00447597
0.00412388
0.00275008
0.00101375
0.000116032
0.00452303
0.00452322
0.00452391
0.00452378
0.00452375
0.00452395
0.00452448
0.0044934
0.00419945
0.00292128
0.00110926
0.000128541
0.00452394
0.00452487
0.00452455
0.00452501
0.00452525
0.00452564
0.00452724
0.00450252
0.00426467
0.00308681
0.00120708
0.000144328
0.00452614
0.00452662
0.00452603
0.00452526
0.00452489
0.00452639
0.0045282
0.00451204
0.00431412
0.00324073
0.00131599
0.000164464
0.00452947
0.00452941
0.00452921
0.00452847
0.00452819
0.00452763
0.0045293
0.00451683
0.00436078
0.00340352
0.00143036
0.000177538
0.00453182
0.00453162
0.00453329
0.00453052
0.00452891
0.00452992
0.00452995
0.00451932
0.0043963
0.00354978
0.00158426
0.000204453
0.0045318
0.00453237
0.0045335
0.0045298
0.00452807
0.00453137
0.00453169
0.00452372
0.00443656
0.00375036
0.00186825
0.000246982
0.00137459
0.00253171
0.00377028
0.00433668
0.00449024
0.00452597
0.00453458
0.00453351
0.00453241
0.00453325
0.00453172
0.00453197
0.00295181
0.00367087
0.00422787
0.00445412
0.00451744
0.00453217
0.00453652
0.00453628
0.00453374
0.00453155
0.00453157
0.00453374
0.0039975
0.00425449
0.00443599
0.00450977
0.00453152
0.00453452
0.00453298
0.00453268
0.00453129
0.00453034
0.00453005
0.00453513
0.00439222
0.00445791
0.00450831
0.00452968
0.00453634
0.00453665
0.00453664
0.0045358
0.0045351
0.00453657
0.00453489
0.00453759
0.00453333
0.00453425
0.0045336
0.00453084
0.00453194
0.00453356
0.00453103
0.00452632
0.00448825
0.00415224
0.00284526
0.000904201
0.00453361
0.0045339
0.00453371
0.00453279
0.00453259
0.00453104
0.00452951
0.00452909
0.00451608
0.00439647
0.00381535
0.00256561
0.00453552
0.00453398
0.00453719
0.00453553
0.00453283
0.00453363
0.00453346
0.00453095
0.00452683
0.00449221
0.00431208
0.00386845
0.00453878
0.00453925
0.0045412
0.00454028
0.00453768
0.0045377
0.00453843
0.00453405
0.00453115
0.00452237
0.00447672
0.00436297
0.00450176
0.00451795
0.0045303
0.00453573
0.00453727
0.00453768
0.00453777
0.00453736
0.00453726
0.00453741
0.00453698
0.00449824
0.00452972
0.00453385
0.00453685
0.0045383
0.00453841
0.0045387
0.00453864
0.00453866
0.00453853
0.00453845
0.00448366
0.0042126
0.00453698
0.0045384
0.00453922
0.00453957
0.00453944
0.00453968
0.00453961
0.00453967
0.00453951
0.00451311
0.00421649
0.00315427
0.004539
0.00454007
0.00454038
0.00454041
0.00454034
0.00454054
0.00454053
0.00454044
0.00453514
0.00442726
0.00348823
0.00153396
0.00448824
0.00452656
0.00453705
0.00453847
0.00453847
0.00453844
0.00453832
0.00453705
0.00453651
0.00453406
0.00452234
0.00449616
0.00418894
0.00444712
0.00452445
0.00453716
0.00453885
0.004539
0.00453918
0.00453905
0.00453868
0.00453823
0.00453533
0.00452958
0.00308901
0.00412304
0.00447435
0.00453188
0.00453898
0.00453965
0.00453992
0.00454021
0.00453984
0.00453978
0.004539
0.00453769
0.00148562
0.00343995
0.00436232
0.00452009
0.00453853
0.00454032
0.0045405
0.00454078
0.00454058
0.00454063
0.00454035
0.00454
0.00454009
0.00454095
0.00454108
0.00454115
0.00454111
0.00454123
0.00454124
0.00454078
0.00452644
0.00428209
0.0025856
0.000335698
0.00454075
0.00454159
0.00454172
0.00454182
0.0045417
0.0045418
0.00454188
0.00454125
0.00452391
0.00423983
0.00244914
0.000298104
0.00454133
0.00454221
0.00454232
0.00454241
0.00454228
0.00454233
0.0045425
0.00454189
0.00452527
0.00424928
0.00248687
0.000305221
0.00454198
0.00454273
0.00454272
0.00454288
0.00454288
0.00454295
0.00454306
0.00454255
0.00452791
0.00427466
0.00256505
0.000318363
0.00454254
0.00454326
0.00454327
0.00454346
0.00454353
0.00454361
0.00454359
0.00454316
0.00453062
0.00430224
0.00265033
0.000332037
0.00454305
0.00454387
0.00454393
0.00454398
0.00454407
0.00454414
0.00454407
0.00454374
0.00453308
0.00432803
0.00273509
0.000346575
0.00454293
0.00454367
0.0045437
0.00454366
0.00454368
0.00454372
0.00454368
0.00454345
0.00453442
0.00435035
0.00281639
0.000361062
0.00441792
0.00440101
0.004399
0.00439885
0.0043987
0.00439868
0.00439883
0.00439885
0.00439162
0.00423217
0.00282335
0.000375965
0.00379106
0.00376552
0.00376176
0.00376134
0.00376082
0.00376069
0.00376094
0.00376131
0.00375624
0.0036385
0.00257156
0.000388195
0.00231797
0.00228789
0.00228342
0.00228278
0.00228105
0.00228151
0.00228205
0.00228318
0.00228225
0.00224232
0.0017941
0.000380096
0.00084986
0.000837309
0.000835659
0.000834952
0.000832806
0.000833656
0.000833905
0.000834492
0.000834825
0.000830273
0.000756967
0.000336954
9.89843e-05
9.89475e-05
9.8726e-05
9.85183e-05
9.79756e-05
9.76746e-05
9.76853e-05
9.72754e-05
9.70746e-05
9.69655e-05
9.52863e-05
8.33021e-05
0.000335812
0.0026002
0.00422045
0.00450629
0.00453795
0.00454089
0.00454128
0.00454135
0.0045412
0.00454129
0.00454124
0.00454108
0.000300201
0.00246139
0.00417897
0.00450193
0.00453818
0.00454155
0.00454198
0.00454191
0.00454191
0.00454201
0.00454187
0.00454175
0.000307386
0.00249076
0.00418983
0.00450414
0.00453889
0.00454226
0.00454249
0.00454252
0.00454264
0.00454277
0.0045426
0.00454239
0.000319358
0.00256125
0.00421779
0.00450879
0.00453985
0.00454289
0.00454304
0.00454305
0.00454308
0.00454323
0.00454318
0.004543
0.000333108
0.0026414
0.00424847
0.00451378
0.00454091
0.00454344
0.00454365
0.00454355
0.00454358
0.00454368
0.00454362
0.0045435
0.000347106
0.00272228
0.00427786
0.00451841
0.00454185
0.00454394
0.00454415
0.00454396
0.00454412
0.00454409
0.00454402
0.00454393
0.000361653
0.00280123
0.00430383
0.00452172
0.00454194
0.00454367
0.0045438
0.00454361
0.00454378
0.00454367
0.00454365
0.00454358
0.00037632
0.00281573
0.00419342
0.00438179
0.00439879
0.00440036
0.00440049
0.00440046
0.00440056
0.00440052
0.00440038
0.00440007
0.000389011
0.00257116
0.00361544
0.00375175
0.00376431
0.00376596
0.00376635
0.00376641
0.0037664
0.00376645
0.00376614
0.00376857
0.000382191
0.00180292
0.00223691
0.00228502
0.00228999
0.00229111
0.00229179
0.00229219
0.00229269
0.00229253
0.00229149
0.00229181
0.000338963
0.000761593
0.000831088
0.000837935
0.000838968
0.000839598
0.000840213
0.000840207
0.000841332
0.000841675
0.00084015
0.000839323
8.3434e-05
9.52816e-05
9.68175e-05
9.69898e-05
9.71262e-05
9.72918e-05
9.77833e-05
9.79452e-05
9.83414e-05
9.89609e-05
9.85897e-05
9.818e-05
)
;

boundaryField
{
    rotor
    {
        type            nutkWallFunction;
        Cmu             0.09;
        kappa           0.41;
        E               9.8;
        value           nonuniform List<scalar> 
48
(
1.28547e-05
2.865e-05
2.87891e-05
2.89916e-05
2.88745e-05
2.91657e-05
2.94843e-05
2.94252e-05
2.88228e-05
2.90925e-05
2.95753e-05
2.98057e-05
2.93236e-05
2.90324e-05
2.94088e-05
2.94655e-05
2.95323e-05
2.98759e-05
2.98416e-05
2.97629e-05
2.93545e-05
2.8676e-05
2.76964e-05
1.12895e-05
1.28547e-05
1.36291e-05
1.55363e-05
1.76566e-05
1.97996e-05
2.21925e-05
2.44587e-05
2.68961e-05
2.92485e-05
3.12192e-05
3.33656e-05
3.82978e-05
1.12895e-05
1.39966e-05
1.59195e-05
1.77314e-05
2.00288e-05
2.21378e-05
2.43575e-05
2.67372e-05
2.92923e-05
3.14785e-05
3.4288e-05
3.77715e-05
)
;
    }
    stator
    {
        type            nutkWallFunction;
        Cmu             0.09;
        kappa           0.41;
        E               9.8;
        value           nonuniform List<scalar> 
48
(
2.27035e-05
2.26817e-05
2.26647e-05
2.26496e-05
2.26117e-05
2.25909e-05
2.25905e-05
2.25607e-05
2.25466e-05
2.25383e-05
2.24019e-05
2.13239e-05
2.1354e-05
2.24032e-05
2.25271e-05
2.25404e-05
2.25506e-05
2.25631e-05
2.25977e-05
2.26084e-05
2.26381e-05
2.26807e-05
2.2654e-05
2.26291e-05
5.53043e-05
5.50386e-05
5.67771e-05
5.87622e-05
6.08277e-05
6.28964e-05
6.49827e-05
6.70664e-05
6.90561e-05
7.01708e-05
6.88283e-05
2.1354e-05
5.52986e-05
5.49359e-05
5.66682e-05
5.87069e-05
6.0769e-05
6.2865e-05
6.49493e-05
6.70438e-05
6.90114e-05
7.00593e-05
6.86498e-05
2.13239e-05
)
;
    }
    front
    {
        type            empty;
    }
    back
    {
        type            empty;
    }
    procBoundary0to1
    {
        type            processor;
        value           nonuniform List<scalar> 
20
(
0.000893112
0.00252878
0.00384552
0.00435695
0.00449498
0.00452908
0.00453739
0.00453981
0.00454082
0.00454159
0.00454234
0.00454287
0.0045434
0.00454388
0.00454358
0.00440011
0.00376853
0.00229174
0.000839293
9.81715e-05
)
;
    }
    procBoundary0to2
    {
        type            processor;
        value           nonuniform List<scalar> 
20
(
0.00137582
0.00297252
0.00401537
0.00439692
0.00450265
0.00452958
0.00453672
0.00453887
0.00453997
0.0045407
0.00454138
0.00454195
0.00454247
0.00454299
0.00454289
0.00441797
0.00379121
0.00231806
0.000850106
9.91234e-05
)
;
    }
}


// ************************************************************************* //
