/*--------------------------------*- C++ -*----------------------------------*\
  =========                 |
  \\      /  F ield         | OpenFOAM: The Open Source CFD Toolbox
   \\    /   O peration     | Website:  https://openfoam.org
    \\  /    A nd           | Version:  6
     \\/     M anipulation  |
\*---------------------------------------------------------------------------*/
FoamFile
{
    version     2.0;
    format      ascii;
    class       volScalarField;
    location    "1000";
    object      p;
}
// * * * * * * * * * * * * * * * * * * * * * * * * * * * * * * * * * * * * * //

dimensions      [0 2 -2 0 0 0 0];

internalField   nonuniform List<scalar> 
768
(
-0.0190443
0.472002
1.15404
1.87985
2.635
3.39219
4.14569
4.88542
5.61613
6.3335
7.04456
7.74677
-0.159429
0.408035
1.10089
1.84417
2.62628
3.40663
4.17111
4.91508
5.643
6.35573
7.05884
7.75357
-0.260274
0.358792
1.06436
1.81721
2.62671
3.43764
4.22186
4.975
5.70197
6.40827
7.10006
7.78218
-0.278666
0.385063
1.11331
1.88588
2.71617
3.54193
4.33244
5.08302
5.80026
6.49123
7.16411
7.82527
-0.211512
0.497555
1.2518
2.0486
2.89061
3.71661
4.49642
5.23053
5.92586
6.59186
7.23731
7.87007
-0.0595311
0.695334
1.47581
2.29001
3.13475
3.94493
4.70155
5.4067
6.07057
6.70359
7.31506
7.9136
0.183101
0.983637
1.78412
2.60806
3.43849
4.21991
4.93966
5.60559
6.22972
6.82306
7.3955
7.95542
0.51976
1.36435
2.17982
2.99857
3.79799
4.53411
5.20457
5.82168
6.39884
6.94745
7.47685
7.99497
0.96646
1.85334
2.66867
3.45949
4.20545
4.87925
5.48831
6.04841
6.57321
7.0735
7.55759
8.03225
1.56046
2.47616
3.25872
3.98588
4.65077
5.24431
5.7814
6.27831
6.74746
7.19778
7.63595
8.06709
2.37332
3.27432
3.9545
4.56638
5.11898
5.61622
6.07365
6.50416
6.91671
7.31734
7.71052
8.09939
3.62419
4.28928
4.74702
5.17785
5.58915
5.97965
6.35458
6.71904
7.07643
7.4294
7.77977
8.1288
8.44796
9.14646
9.8501
10.557
11.2747
12.0003
12.7395
13.4867
14.2355
14.9606
15.6454
16.1492
8.44564
9.1366
9.83223
10.5339
11.2478
11.9755
12.7231
13.4916
14.2716
15.0195
15.7194
16.297
8.4602
9.13851
9.82271
10.5172
11.2287
11.963
12.7284
13.5291
14.346
15.1125
15.8274
16.4509
8.48179
9.13942
9.80489
10.4843
11.1855
11.9165
12.6869
13.5017
14.3406
15.1271
15.8636
16.5288
8.49774
9.12733
9.76576
10.4208
11.1
11.8144
12.5718
13.3843
14.231
15.0408
15.802
16.5111
8.50717
9.10248
9.70803
10.3294
10.9787
11.6616
12.3962
13.187
14.0313
14.8566
15.6364
16.3906
8.51039
9.06765
9.63375
10.2169
10.8248
11.4699
12.1636
12.9224
13.7439
14.5696
15.3682
16.1611
8.50864
9.02417
9.54766
10.086
10.6474
11.2427
11.8858
12.5928
13.3726
14.1859
14.9828
15.8151
8.50315
8.97532
9.45364
9.94389
10.4532
10.9914
11.5715
12.2115
12.9269
13.693
14.4765
15.3339
8.4953
8.92396
9.35651
9.79712
10.2513
10.7271
11.2354
11.7923
12.4168
13.1048
13.8225
14.6797
8.48626
8.87266
9.26037
9.65175
10.0504
10.4614
10.8922
11.354
11.8625
12.4203
13.0095
13.7679
8.47677
8.82334
9.16845
9.5128
9.85778
10.2053
10.5578
10.9183
11.2908
11.671
12.0237
12.4781
6.12369
5.52135
5.56919
5.77176
6.03327
6.31881
6.61532
6.91772
7.22365
7.53225
7.84303
8.15534
7.30825
6.45455
6.24926
6.28251
6.42404
6.62096
6.84917
7.09631
7.35595
7.62437
7.8993
8.17866
7.78513
7.0533
6.75911
6.6946
6.75272
6.88153
7.05364
7.25366
7.47276
7.70555
7.94863
8.1991
8.00843
7.42973
7.12996
7.01757
7.02223
7.10125
7.2289
7.38969
7.57387
7.77551
7.99045
8.21586
8.46773
8.77756
9.0832
9.38389
9.679
9.96747
10.2466
10.5107
10.7463
10.9162
10.9029
10.2763
8.45957
8.73636
9.00623
9.26739
9.51776
9.75397
9.96978
10.1535
10.282
10.3077
10.1133
9.40175
8.45311
8.70059
8.93839
9.16437
9.37556
9.5672
9.73117
9.85333
9.9089
9.85328
9.60215
8.98543
8.44912
8.67092
8.88015
9.07514
9.25253
9.40697
9.52983
9.607
9.616
9.52107
9.26497
8.76225
8.12855
7.67426
7.39853
7.26842
7.2411
7.28488
7.37813
7.50663
7.66103
7.83536
8.02557
8.22952
8.19914
7.8385
7.59574
7.4634
7.41808
7.43729
7.50403
7.60597
7.73485
7.88523
8.05323
8.23653
8.24557
7.95382
7.74241
7.61566
7.56088
7.56312
7.60937
7.68948
7.79631
7.92513
8.07105
8.23348
8.27815
8.03758
7.85396
7.73525
7.67609
7.66656
7.69684
7.75879
7.84614
7.95439
8.07544
8.2053
8.44923
8.64815
8.83186
8.99967
9.14813
9.27189
9.36263
9.4076
9.38791
9.27676
9.03842
8.6335
8.45615
8.63315
8.79345
8.93725
9.06089
9.15935
9.2251
9.24715
9.21035
9.09546
8.88089
8.5527
8.47236
8.6267
8.76399
8.88606
8.98822
9.06578
9.11207
9.11789
9.07142
8.95923
8.76931
8.49983
8.50788
8.63179
8.74359
8.84499
8.92817
8.98823
9.01924
9.01353
8.96205
8.85564
8.68826
8.46368
8.30213
8.10012
7.93959
7.83008
7.76956
7.75182
7.76964
7.81634
7.88631
7.97423
8.06666
8.13689
8.32037
8.14798
8.00682
7.90582
7.84557
7.82204
7.82997
7.86383
7.91848
7.98776
8.05682
8.10077
8.33459
8.18522
8.05982
7.96694
7.90782
7.88025
7.8803
7.90347
7.94491
7.99839
8.04989
8.07942
8.34588
8.21474
8.10252
8.01657
7.95893
7.92847
7.92217
7.93641
7.96666
8.007
8.04548
8.06577
8.35495
8.23837
8.13694
8.05727
8.00127
7.96873
7.95733
7.96417
7.98508
8.01468
8.04276
8.05727
8.36234
8.25759
8.16529
8.0909
8.03635
8.00233
7.98674
7.98744
8.00058
8.02133
8.04142
8.05154
8.36839
8.27331
8.18862
8.11908
8.06561
8.03065
8.01147
8.00722
8.01386
8.02746
8.04099
8.04815
8.37332
8.28626
8.20815
8.14247
8.09003
8.0543
8.03223
8.02385
8.02516
8.03292
8.04134
8.04599
8.37717
8.29644
8.22346
8.16165
8.10898
8.07342
8.04849
8.0373
8.03422
8.03761
8.04212
8.04488
8.37961
8.30313
8.23401
8.17349
8.12224
8.08547
8.05965
8.0459
8.04031
8.04073
8.04291
8.04432
8.38068
8.30662
8.23909
8.17936
8.12891
8.09156
8.06525
8.05017
8.04324
8.04212
8.04321
8.04407
8.38095
8.30775
8.24053
8.18101
8.13113
8.09353
8.06719
8.05163
8.04428
8.04259
8.0433
8.04409
8.57948
8.64629
8.73088
8.81237
8.87871
8.92412
8.94306
8.92913
8.87543
8.77589
8.62804
8.43803
8.6173
8.6598
8.72257
8.7864
8.83803
8.87109
8.8804
8.86057
8.80633
8.71372
8.58246
8.4191
8.64041
8.669
8.71609
8.76526
8.80442
8.82722
8.82885
8.80473
8.75086
8.66474
8.5472
8.40491
8.65564
8.67556
8.71078
8.74792
8.77658
8.79083
8.78628
8.75903
8.70604
8.62573
8.5197
8.39385
8.6658
8.67997
8.70606
8.73339
8.75342
8.7606
8.75113
8.72152
8.6696
8.59437
8.49772
8.38532
8.67286
8.68302
8.70186
8.72128
8.73406
8.73546
8.72195
8.6906
8.63985
8.56892
8.4802
8.37839
8.67756
8.68486
8.69802
8.71099
8.71792
8.71452
8.69785
8.66505
8.61548
8.54807
8.4658
8.37298
8.68078
8.68594
8.69459
8.70237
8.70449
8.69717
8.67791
8.64401
8.59546
8.531
8.45418
8.36857
8.68283
8.68642
8.69158
8.69551
8.69388
8.6835
8.66238
8.62738
8.57998
8.51743
8.4451
8.36515
8.68417
8.68652
8.68958
8.69085
8.68676
8.67447
8.65179
8.61657
8.5693
8.50877
8.43899
8.36303
8.68491
8.68654
8.68849
8.68834
8.68291
8.66957
8.64606
8.61073
8.56354
8.50413
8.43588
8.36173
8.68507
8.68649
8.68807
8.68741
8.68152
8.66781
8.64402
8.60869
8.56146
8.50259
8.43489
8.36124
)
;

boundaryField
{
    rotor
    {
        type            zeroGradient;
    }
    stator
    {
        type            zeroGradient;
    }
    front
    {
        type            empty;
    }
    back
    {
        type            empty;
    }
    procBoundary0to1
    {
        type            processor;
        value           nonuniform List<scalar> 
20
(
10.3155
9.43945
9.02998
8.81512
8.69391
8.61962
8.57203
8.54047
8.51845
8.50276
8.4911
8.48236
8.47555
8.47021
8.46587
8.46231
8.45951
8.45746
8.45615
8.45561
)
;
    }
    procBoundary0to2
    {
        type            processor;
        value           nonuniform List<scalar> 
20
(
6.16492
7.31326
7.76731
7.97411
8.08187
8.1428
8.18155
8.20793
8.22673
8.24072
8.25126
8.25956
8.26597
8.27128
8.2755
8.279
8.28193
8.2835
8.28438
8.28466
)
;
    }
}


// ************************************************************************* //
