/*--------------------------------*- C++ -*----------------------------------*\
  =========                 |
  \\      /  F ield         | OpenFOAM: The Open Source CFD Toolbox
   \\    /   O peration     | Website:  https://openfoam.org
    \\  /    A nd           | Version:  6
     \\/     M anipulation  |
\*---------------------------------------------------------------------------*/
FoamFile
{
    version     2.0;
    format      ascii;
    class       surfaceScalarField;
    location    "1000";
    object      phi;
}
// * * * * * * * * * * * * * * * * * * * * * * * * * * * * * * * * * * * * * //

dimensions      [0 3 -1 0 0 0 0];

internalField   nonuniform List<scalar> 
1468
(
-9.34636e-06
6.87485e-07
-1.10286e-05
9.32147e-07
-1.15141e-05
8.53905e-07
-1.26696e-05
7.13382e-07
-1.28003e-05
4.86392e-07
-1.33738e-05
2.29206e-07
-1.31243e-05
8.59569e-08
-1.33812e-05
-2.4116e-08
-1.30029e-05
-5.70276e-08
-1.31366e-05
-9.46496e-08
-1.27322e-05
-8.92299e-08
-1.05991e-07
-1.28077e-05
-2.34241e-06
2.86774e-06
-2.39397e-06
8.67718e-07
-1.89526e-06
3.69593e-07
-1.43307e-06
2.20264e-07
-1.02641e-06
1.03553e-07
-8.02255e-07
-1.25067e-08
-5.95319e-07
-9.52415e-08
-4.84254e-07
-1.47336e-07
-3.50026e-07
-1.64613e-07
-2.87244e-07
-1.64697e-07
-2.01096e-07
-1.46934e-07
-1.25949e-07
-1.83034e-07
2.90567e-07
2.56094e-06
8.18307e-07
3.11067e-07
1.29824e-06
-9.71936e-08
1.70446e-06
-1.86038e-07
2.054e-06
-2.31516e-07
2.31179e-06
-2.66876e-07
2.51777e-06
-2.87491e-07
2.66241e-06
-2.88831e-07
2.78046e-06
-2.70557e-07
2.85587e-06
-2.37383e-07
2.91369e-06
-1.9332e-07
-1.43968e-07
2.93514e-06
1.11479e-06
1.37851e-06
1.86226e-06
-4.53019e-07
2.35485e-06
-5.75414e-07
2.73554e-06
-5.62519e-07
3.06912e-06
-5.41333e-07
3.33893e-06
-5.27994e-07
3.56572e-06
-4.92148e-07
3.73524e-06
-4.51255e-07
3.8701e-06
-3.8815e-07
3.9591e-06
-3.22457e-07
4.02142e-06
-2.42164e-07
-1.65496e-07
4.04496e-06
1.50132e-06
-2.09947e-07
2.41034e-06
-1.39126e-06
2.95277e-06
-1.14769e-06
3.38951e-06
-9.72677e-07
3.73368e-06
-8.97946e-07
4.05048e-06
-8.07342e-07
4.28922e-06
-7.32042e-07
4.49556e-06
-6.25684e-07
4.6348e-06
-5.29286e-07
4.7473e-06
-4.10078e-07
4.80389e-06
-3.04239e-07
-1.80493e-07
4.8403e-06
1.77189e-06
-2.47065e-06
2.85093e-06
-2.61524e-06
3.53181e-06
-1.84491e-06
3.99963e-06
-1.49603e-06
4.42797e-06
-1.29592e-06
4.74611e-06
-1.15234e-06
5.03653e-06
-9.88223e-07
5.23293e-06
-8.38742e-07
5.40612e-06
-6.71407e-07
5.50131e-06
-5.21031e-07
5.58362e-06
-3.56726e-07
-2.09815e-07
5.59707e-06
2.00368e-06
-4.57295e-06
3.33806e-06
-4.0342e-06
4.14048e-06
-2.6859e-06
4.71903e-06
-2.09515e-06
5.1701e-06
-1.7801e-06
5.54076e-06
-1.5223e-06
5.82265e-06
-1.28455e-06
6.04409e-06
-1.052e-06
6.19878e-06
-8.33569e-07
6.31167e-06
-6.21813e-07
6.37365e-06
-4.21979e-07
-2.2423e-07
6.4047e-06
2.06936e-06
-6.90774e-06
3.84942e-06
-5.82695e-06
4.83918e-06
-3.73101e-06
5.52006e-06
-2.79209e-06
6.02343e-06
-2.29427e-06
6.40385e-06
-1.91132e-06
6.68801e-06
-1.57176e-06
6.89741e-06
-1.26251e-06
7.04571e-06
-9.80133e-07
7.14676e-06
-7.19312e-07
7.20635e-06
-4.7522e-07
-2.41175e-07
7.23121e-06
2.15604e-06
-8.82926e-06
4.43136e-06
-8.11057e-06
5.68338e-06
-4.95095e-06
6.44905e-06
-3.56139e-06
6.97503e-06
-2.82174e-06
7.34599e-06
-2.28179e-06
7.60861e-06
-1.83295e-06
7.79415e-06
-1.44517e-06
7.92249e-06
-1.10485e-06
8.00797e-06
-7.99115e-07
8.05807e-06
-5.18955e-07
-2.53392e-07
8.07922e-06
2.63757e-06
-1.1332e-05
5.35403e-06
-1.07383e-05
6.7304e-06
-6.32854e-06
7.53245e-06
-4.34084e-06
8.03089e-06
-3.30611e-06
8.35426e-06
-2.59614e-06
8.57084e-06
-2.04116e-06
8.71702e-06
-1.58524e-06
8.81634e-06
-1.19693e-06
8.88044e-06
-8.56973e-07
8.91852e-06
-5.49098e-07
-2.60806e-07
8.93478e-06
4.55691e-06
-1.5585e-05
6.88131e-06
-1.298e-05
8.12625e-06
-7.50175e-06
8.79798e-06
-4.98529e-06
9.18051e-06
-3.66811e-06
9.40991e-06
-2.80994e-06
9.55486e-06
-2.17431e-06
9.64985e-06
-1.67055e-06
9.71258e-06
-1.25113e-06
9.75274e-06
-8.88919e-07
9.77639e-06
-5.64167e-07
-2.62524e-07
9.78764e-06
9.13429e-06
-2.46299e-05
9.63298e-06
-1.33746e-05
9.98554e-06
-7.81987e-06
1.02412e-05
-5.19942e-06
1.03917e-05
-3.78923e-06
1.04819e-05
-2.87872e-06
1.05386e-05
-2.21582e-06
1.05761e-05
-1.69561e-06
1.06001e-05
-1.26563e-06
1.06152e-05
-8.94904e-07
1.06236e-05
-5.64656e-07
1.06297e-05
-2.58966e-07
-1.24023e-05
-9.43754e-08
-1.24404e-05
-1.10017e-07
-1.20356e-05
-1.06684e-07
-1.20567e-05
-1.37429e-07
-1.16394e-05
-1.64432e-07
-1.15493e-05
-2.51464e-07
-1.10049e-05
-3.86578e-07
-1.0398e-05
-6.44948e-07
-9.32225e-06
-9.59688e-07
-7.91263e-06
-1.30269e-06
-5.62221e-06
-2.12627e-06
-5.57374e-06
-1.47303e-07
-9.91018e-08
-1.77105e-07
-7.80865e-08
-1.91732e-07
-6.06254e-08
-2.71688e-07
-5.81923e-08
-3.42897e-07
-7.17557e-08
-4.84184e-07
-1.16321e-07
-6.6386e-07
-1.97585e-07
-9.881e-07
-3.17804e-07
-1.47026e-06
-4.59904e-07
-1.96456e-06
-7.77644e-07
-2.03075e-06
-1.97523e-06
-7.58241e-06
2.94085e-06
-9.2693e-08
2.91158e-06
-4.4217e-08
2.86583e-06
-1.22898e-09
2.77915e-06
3.09208e-08
2.66693e-06
5.00691e-08
2.50075e-06
4.90729e-08
2.27796e-06
2.69726e-08
1.96892e-06
-8.81173e-09
1.57807e-06
-6.2914e-08
1.11177e-06
-2.85727e-07
5.29866e-07
-1.35978e-06
-7.03399e-06
4.04515e-06
-8.08977e-08
4.00921e-06
-5.30714e-09
3.94775e-06
7.2465e-08
3.8454e-06
1.36769e-07
3.70633e-06
1.97815e-07
3.51576e-06
2.38598e-07
3.27618e-06
2.74155e-07
2.97894e-06
2.85822e-07
2.63921e-06
2.94895e-07
2.17926e-06
1.82575e-07
1.39864e-06
-5.4776e-07
-5.46256e-06
4.82617e-06
-7.34717e-08
4.7941e-06
4.87901e-08
4.71124e-06
1.51975e-07
4.60388e-06
2.69409e-07
4.4322e-06
3.63127e-07
4.23238e-06
4.72233e-07
3.94379e-06
5.42734e-07
3.63378e-06
6.30349e-07
3.24161e-06
6.88367e-07
2.72142e-06
7.35125e-07
1.9079e-06
5.4506e-07
-3.39088e-06
5.60418e-06
-4.8359e-08
5.54513e-06
9.6758e-08
5.48119e-06
2.59309e-07
5.33928e-06
4.05685e-07
5.1865e-06
5.73602e-07
4.92885e-06
7.18299e-07
4.64881e-06
8.85211e-07
4.25847e-06
1.01997e-06
3.81844e-06
1.18791e-06
3.25976e-06
1.45261e-06
2.19099e-06
1.76011e-06
-6.21181e-07
6.39218e-06
-3.279e-08
6.35349e-06
1.63712e-07
6.26949e-06
3.60379e-07
6.15188e-06
5.70249e-07
5.96925e-06
7.8378e-07
5.73374e-06
1.01585e-06
5.40043e-06
1.2469e-06
4.99389e-06
1.50041e-06
4.48727e-06
1.78128e-06
3.71906e-06
2.23604e-06
2.72176e-06
3.39738e-06
2.18501e-06
7.22373e-06
-1.11693e-08
7.18519e-06
2.21072e-07
7.11433e-06
4.63648e-07
7.00004e-06
7.19371e-07
6.83533e-06
9.97834e-07
6.59588e-06
1.29796e-06
6.27292e-06
1.63107e-06
5.83079e-06
1.99187e-06
5.21932e-06
2.4258e-06
4.42606e-06
3.24145e-06
2.76608e-06
5.00563e-06
5.34018e-06
8.07376e-06
6.31566e-09
8.04477e-06
2.70959e-07
7.9859e-06
5.48534e-07
7.89262e-06
8.48449e-07
7.74768e-06
1.17927e-06
7.53748e-06
1.55162e-06
7.22994e-06
1.97791e-06
6.78983e-06
2.47611e-06
6.16546e-06
3.10655e-06
5.11849e-06
4.20241e-06
3.37849e-06
7.10032e-06
8.49592e-06
8.93324e-06
2.06822e-08
8.91484e-06
3.08134e-07
8.87461e-06
6.1187e-07
8.80724e-06
9.44799e-07
8.69713e-06
1.31681e-06
8.53167e-06
1.7488e-06
8.27704e-06
2.26024e-06
7.88587e-06
2.89042e-06
7.25232e-06
3.73119e-06
6.27436e-06
5.28124e-06
4.09215e-06
9.0073e-06
1.26054e-05
9.79038e-06
3.11076e-08
9.78384e-06
3.31518e-07
9.76529e-06
6.51373e-07
9.72729e-06
1.00328e-06
9.66285e-06
1.40193e-06
9.5581e-06
1.87056e-06
9.38973e-06
2.44254e-06
9.10828e-06
3.18282e-06
8.62256e-06
4.22519e-06
7.70983e-06
6.06994e-06
6.03785e-06
1.07127e-05
1.84216e-05
1.06368e-05
3.62941e-08
1.06428e-05
3.39934e-07
1.06454e-05
6.65782e-07
1.06388e-05
1.02354e-06
1.06223e-05
1.43096e-06
1.05891e-05
1.9089e-06
1.05362e-05
2.50053e-06
1.04371e-05
3.27326e-06
1.02378e-05
4.39278e-06
9.91092e-06
6.3888e-06
9.21312e-06
1.12083e-05
2.75632e-05
1.70558e-05
-9.23545e-06
1.32261e-05
-9.47874e-06
1.20891e-05
-6.61592e-06
1.17223e-05
-4.79254e-06
1.15874e-05
-3.62296e-06
1.15288e-05
-2.79668e-06
1.1499e-05
-2.16844e-06
1.14815e-05
-1.66412e-06
1.14696e-05
-1.24227e-06
1.14607e-05
-8.76072e-07
1.14549e-05
-5.49059e-07
-2.48896e-07
1.14554e-05
1.821e-05
-4.16411e-06
1.4945e-05
-6.15079e-06
1.35776e-05
-5.2077e-06
1.29747e-05
-4.14576e-06
1.26769e-05
-3.29125e-06
1.25148e-05
-2.60957e-06
1.24188e-05
-2.05336e-06
1.23569e-05
-1.58834e-06
1.23148e-05
-1.18883e-06
1.22853e-05
-8.37297e-07
1.22662e-05
-5.21824e-07
-2.34847e-07
1.22601e-05
1.77837e-05
-2.20067e-06
1.57706e-05
-4.09258e-06
1.46283e-05
-4.01535e-06
1.40028e-05
-3.48167e-06
1.3645e-05
-2.9016e-06
1.34289e-05
-2.36858e-06
1.32912e-05
-1.89622e-06
1.31986e-05
-1.48053e-06
1.31337e-05
-1.11128e-06
1.30873e-05
-7.8067e-07
1.30561e-05
-4.79679e-07
-2.08954e-07
1.30418e-05
1.75167e-05
-1.32637e-06
1.62998e-05
-2.83465e-06
1.54259e-05
-3.10665e-06
1.48668e-05
-2.886e-06
1.45093e-05
-2.51371e-06
1.42758e-05
-2.11078e-06
1.41179e-05
-1.72038e-06
1.40072e-05
-1.35586e-06
1.39263e-05
-1.02029e-06
1.38674e-05
-7.11975e-07
1.38249e-05
-4.29034e-07
1.37955e-05
-1.75973e-07
1.1467e-05
3.64385e-08
1.14855e-05
3.35058e-07
1.15068e-05
6.57066e-07
1.15299e-05
1.0105e-06
1.15563e-05
1.40908e-06
1.15933e-05
1.87207e-06
1.16547e-05
2.43243e-06
1.17732e-05
3.14239e-06
1.20377e-05
4.10354e-06
1.27758e-05
5.56312e-06
1.5698e-05
8.24713e-06
1.1569e-05
1.22775e-05
2.83193e-08
1.23073e-05
3.1573e-07
1.23448e-05
6.27973e-07
1.23919e-05
9.69059e-07
1.24529e-05
1.34665e-06
1.25426e-05
1.77644e-06
1.26852e-05
2.27594e-06
1.2934e-05
2.87265e-06
1.33981e-05
3.59845e-06
1.44073e-05
4.51481e-06
1.69544e-05
5.60644e-06
5.58571e-06
1.30681e-05
9.98814e-09
1.31079e-05
2.83029e-07
1.31585e-05
5.83276e-07
1.32227e-05
9.06592e-07
1.33082e-05
1.25783e-06
1.34299e-05
1.64528e-06
1.36155e-05
2.07536e-06
1.39134e-05
2.55288e-06
1.44124e-05
3.0664e-06
1.5295e-05
3.57019e-06
1.69721e-05
3.89468e-06
2.99026e-06
1.38393e-05
-2.70775e-08
1.38891e-05
2.38056e-07
1.39493e-05
5.26321e-07
1.40252e-05
8.29367e-07
1.41253e-05
1.15183e-06
1.42629e-05
1.49459e-06
1.44636e-05
1.85704e-06
1.47636e-05
2.22709e-06
1.52214e-05
2.57416e-06
1.59328e-05
2.81902e-06
1.70272e-05
2.74803e-06
1.7441e-06
2.02343e-06
-8.67589e-07
1.25791e-06
-2.03861e-06
6.09827e-07
-2.42518e-06
1.42997e-07
-2.38785e-06
-1.81239e-07
-2.16193e-06
-4.06971e-07
-1.86221e-06
-5.67445e-07
-1.54191e-06
-6.85147e-07
-1.22352e-06
-7.74682e-07
-9.18678e-07
-8.4339e-07
-6.33372e-07
-8.98437e-07
-3.6371e-07
-1.01546e-07
-9.52321e-07
1.56429e-06
-6.11774e-07
1.06953e-06
-1.51763e-06
5.89959e-07
-1.91922e-06
2.08893e-07
-1.97915e-06
-7.60464e-08
-1.85195e-06
-2.86142e-07
-1.63188e-06
-4.42199e-07
-1.36984e-06
-5.61782e-07
-1.09249e-06
-6.5762e-07
-8.14451e-07
-7.37965e-07
-5.44997e-07
-8.17608e-07
-2.68961e-07
1.67112e-08
-9.44156e-07
1.23746e-06
-4.55667e-07
9.05645e-07
-1.16535e-06
5.48298e-07
-1.54031e-06
2.40478e-07
-1.64729e-06
-4.60772e-09
-1.58427e-06
-1.9427e-07
-1.423e-06
-3.40796e-07
-1.2074e-06
-4.57249e-07
-9.63693e-07
-5.5616e-07
-7.04824e-07
-6.52399e-07
-4.37874e-07
-7.92829e-07
-1.24301e-07
3.21635e-07
-1.06143e-06
9.98359e-07
-3.54961e-07
7.68254e-07
-9.17373e-07
4.99046e-07
-1.25135e-06
2.5113e-07
-1.37886e-06
4.3097e-08
-1.35705e-06
-1.24433e-07
-1.23875e-06
-2.58188e-07
-1.06117e-06
-3.66828e-07
-8.45702e-07
-4.62994e-07
-6.02652e-07
-5.67154e-07
-3.29261e-07
-7.2176e-07
5.16112e-08
-1.32939e-06
9.19637e-07
-8.74999e-07
-1.07511e-07
-8.12214e-07
1.75682e-07
-7.43755e-07
4.57834e-07
-6.59306e-07
7.42214e-07
-5.5125e-07
1.03666e-06
-4.06587e-07
1.33821e-06
-2.05554e-07
1.63955e-06
7.84525e-08
1.92183e-06
4.78516e-07
2.14578e-06
1.03101e-06
2.22785e-06
1.75203e-06
1.99966e-06
1.09761e-06
-7.89842e-07
-2.55251e-07
-7.03314e-07
8.84643e-08
-6.26221e-07
3.79496e-07
-5.37682e-07
6.5003e-07
-4.28978e-07
9.193e-07
-2.87857e-07
1.1841e-06
-9.95008e-08
1.43321e-06
1.54081e-07
1.64666e-06
4.88939e-07
1.78406e-06
9.14274e-07
1.77385e-06
1.39795e-06
1.48814e-06
7.3914e-07
-7.5131e-07
-5.82194e-07
-6.13975e-07
-5.40175e-08
-5.25355e-07
2.87287e-07
-4.36078e-07
5.55712e-07
-3.31197e-07
8.06578e-07
-1.99085e-07
1.04078e-06
-2.811e-08
1.24807e-06
1.92388e-07
1.4088e-06
4.68626e-07
1.48698e-06
7.94536e-07
1.42482e-06
1.12809e-06
1.13547e-06
5.25922e-07
-6.65709e-07
-1.23372e-06
-5.20294e-07
-2.00496e-07
-4.32139e-07
1.96989e-07
-3.4833e-07
4.67275e-07
-2.51418e-07
7.0169e-07
-1.31303e-07
9.08601e-07
2.05002e-08
1.08153e-06
2.09412e-07
1.20265e-06
4.35717e-07
1.24232e-06
6.86751e-07
1.15509e-06
9.23007e-07
8.8588e-07
3.88826e-07
8.2009e-07
-2.85128e-07
6.55491e-07
-7.3837e-07
4.49422e-07
-1.03121e-06
2.49768e-07
-1.16086e-06
7.46803e-08
-1.16374e-06
-7.13379e-08
-1.07667e-06
-1.90474e-07
-9.28798e-07
-2.87649e-07
-7.37926e-07
-3.69894e-07
-5.11864e-07
-4.42554e-07
-2.46432e-07
-5.09295e-07
1.22563e-07
4.79962e-07
6.8434e-07
-2.34277e-07
5.6328e-07
-6.03743e-07
4.03943e-07
-8.56755e-07
2.42318e-07
-9.83938e-07
9.54484e-08
-1.00166e-06
-3.05481e-08
-9.37771e-07
-1.34901e-07
-8.14034e-07
-2.19284e-07
-6.46955e-07
-2.84832e-07
-4.41853e-07
-3.26906e-07
-2.02338e-07
-2.89597e-07
1.06273e-07
1.83465e-07
5.79442e-07
-1.95673e-07
4.88354e-07
-5.0175e-07
3.62932e-07
-7.21839e-07
2.31904e-07
-8.38759e-07
1.08802e-07
-8.63581e-07
8.76927e-10
-8.16109e-07
-8.98609e-08
-7.12082e-07
-1.61955e-07
-5.6556e-07
-2.13853e-07
-3.82821e-07
-2.36447e-07
-1.71749e-07
-1.94319e-07
6.70469e-08
5.52768e-08
4.96869e-07
-1.65164e-07
4.26814e-07
-4.20896e-07
3.2761e-07
-6.10955e-07
2.20686e-07
-7.20522e-07
1.17281e-07
-7.4908e-07
2.51388e-08
-7.13868e-07
-5.33181e-08
-6.2587e-07
-1.14796e-07
-4.98918e-07
-1.56421e-07
-3.38337e-07
-1.70408e-07
-1.56784e-07
-1.27181e-07
3.8723e-08
-8.11936e-08
4.31139e-07
-1.40797e-07
3.7638e-07
-3.57963e-07
2.96541e-07
-5.25386e-07
2.09419e-07
-6.23153e-07
1.224e-07
-6.50302e-07
4.39057e-08
-6.23936e-07
-2.40296e-08
-5.48796e-07
-7.65067e-08
-4.38141e-07
-1.10889e-07
-2.98309e-07
-1.19081e-07
-1.41173e-07
-8.66309e-08
9.02507e-09
-1.1511e-07
3.77866e-07
-1.20538e-07
3.34193e-07
-3.06494e-07
2.70184e-07
-4.52984e-07
1.99154e-07
-5.45162e-07
1.25314e-07
-5.67513e-07
5.84747e-08
-5.49799e-07
-4.06807e-10
-4.82931e-07
-4.56703e-08
-3.89011e-07
-7.44933e-08
-2.66506e-07
-8.10315e-08
-1.33211e-07
-5.22046e-08
-8.36173e-09
-1.72062e-07
3.35077e-07
-1.03042e-07
2.99847e-07
-2.64537e-07
2.47474e-07
-3.96683e-07
1.90965e-07
-4.76468e-07
1.26747e-07
-4.97445e-07
7.04632e-08
-4.83124e-07
1.82475e-08
-4.25598e-07
-2.06997e-08
-3.43912e-07
-4.59152e-08
-2.37657e-07
-5.08473e-08
-1.23297e-07
-3.00385e-08
-2.55379e-08
-1.67584e-07
3.06597e-07
-8.76854e-08
2.77052e-07
-2.28391e-07
2.34255e-07
-3.43312e-07
1.87908e-07
-4.24274e-07
1.30617e-07
-4.29421e-07
8.1644e-08
-4.27296e-07
3.40629e-08
-3.70044e-07
-7.13249e-10
-3.0449e-07
-2.37366e-08
-2.10624e-07
-2.87581e-08
-1.14224e-07
-9.33557e-09
-3.63059e-08
-1.70335e-07
3.1037e-07
-7.34842e-08
2.83312e-07
-1.964e-07
2.42503e-07
-3.03911e-07
2.05294e-07
-3.48884e-07
1.44117e-07
-3.85801e-07
1.00201e-07
-3.58355e-07
4.96731e-08
-3.29679e-07
1.65452e-08
-2.60868e-07
-7.67555e-09
-1.87593e-07
-1.3633e-08
-1.06592e-07
5.98662e-09
-4.8768e-08
-1.57737e-07
3.85937e-07
-5.25947e-08
3.53797e-07
-1.60651e-07
3.1222e-07
-2.30346e-07
2.67399e-07
-2.61927e-07
1.9795e-07
-3.03652e-07
1.41814e-07
-2.78832e-07
8.18457e-08
-2.62799e-07
3.93311e-08
-2.07496e-07
8.69712e-09
-1.53357e-07
-7.70555e-10
-9.10063e-08
1.75472e-08
-5.62944e-08
-1.405e-07
6.10538e-07
-1.05796e-09
5.63763e-07
-7.75957e-08
5.08505e-07
-7.91831e-08
4.44739e-07
-6.96566e-08
3.43032e-07
-1.4404e-07
2.55516e-07
-1.17075e-07
1.6277e-07
-1.38723e-07
9.4144e-08
-1.04561e-07
4.37991e-08
-8.57528e-08
2.32701e-08
-4.94086e-08
2.92846e-08
-4.02068e-08
-1.06684e-07
9.03416e-07
8.46097e-07
7.96961e-07
7.3969e-07
6.13108e-07
5.02922e-07
3.72222e-07
2.71524e-07
1.90311e-07
1.46048e-07
1.06684e-07
-4.32971e-07
-8.27402e-07
-3.94695e-07
-2.4309e-07
-3.40577e-07
1.38885e-07
-2.71696e-07
3.93286e-07
-1.86097e-07
6.09027e-07
-7.91553e-08
7.92225e-07
5.36867e-08
9.37282e-07
2.14426e-07
1.02898e-06
3.9943e-07
1.04261e-06
5.94793e-07
9.45904e-07
7.65625e-07
7.01929e-07
3.00087e-07
-2.37465e-07
-5.62475e-07
-2.86136e-07
-1.92994e-07
-2.59907e-07
1.11577e-07
-2.06161e-07
3.36074e-07
-1.32502e-07
5.28432e-07
-3.87711e-08
6.8884e-07
7.63471e-08
8.10302e-07
2.12373e-07
8.80252e-07
3.64095e-07
8.78934e-07
5.17298e-07
7.81506e-07
6.45225e-07
5.68943e-07
2.34181e-07
-1.6221e-07
-4.14769e-07
-2.08053e-07
-1.48939e-07
-1.9427e-07
9.52706e-08
-1.52105e-07
2.89716e-07
-8.90535e-08
4.59914e-07
-7.59271e-09
5.99857e-07
9.17812e-08
7.02128e-07
2.06909e-07
7.55724e-07
3.3159e-07
7.43853e-07
4.53758e-07
6.51593e-07
5.5015e-07
4.63227e-07
1.90968e-07
-1.1087e-07
-2.74016e-07
-1.50134e-07
-1.06117e-07
-1.42063e-07
8.73326e-08
-1.07952e-07
2.53341e-07
-5.39842e-08
4.00628e-07
1.65623e-08
5.21634e-07
1.02163e-07
6.07509e-07
1.99436e-07
6.49327e-07
3.02854e-07
6.33452e-07
4.00607e-07
5.47659e-07
4.7642e-07
3.87344e-07
1.53068e-07
-7.55127e-08
-1.99751e-07
-1.0666e-07
-7.4845e-08
-1.00966e-07
8.0708e-08
-7.26484e-08
2.21792e-07
-2.59366e-08
3.50385e-07
3.51485e-08
4.54632e-07
1.0912e-07
5.2721e-07
1.91628e-07
5.60193e-07
2.77654e-07
5.40184e-07
3.57458e-07
4.64815e-07
4.1606e-07
3.21966e-07
1.30315e-07
-4.96629e-08
-1.18915e-07
-7.33819e-08
-4.6642e-08
-6.86225e-08
7.66174e-08
-4.41675e-08
1.96209e-07
-3.58007e-09
3.05524e-07
4.9472e-08
3.962e-07
1.13678e-07
4.56105e-07
1.83462e-07
4.8462e-07
2.56385e-07
4.6358e-07
3.2088e-07
3.98182e-07
3.68626e-07
2.77205e-07
1.05373e-07
-3.13623e-08
-8.0004e-08
-4.81373e-08
-2.80294e-08
-4.32367e-08
7.18473e-08
-2.18277e-08
1.73229e-07
1.4455e-08
2.67912e-07
6.03149e-08
3.45789e-07
1.1731e-07
3.97273e-07
1.76081e-07
4.20292e-07
2.39133e-07
4.00557e-07
2.91816e-07
3.43341e-07
3.29e-07
2.34796e-07
9.09224e-08
-1.75607e-08
-3.70043e-08
-2.93927e-08
-1.24007e-08
-2.39006e-08
6.73041e-08
-4.15517e-09
1.53074e-07
2.93297e-08
2.31585e-07
7.03153e-08
3.02276e-07
1.22381e-07
3.40431e-07
1.73402e-07
3.68038e-07
2.29718e-07
3.42111e-07
2.73143e-07
3.01466e-07
3.03988e-07
2.02688e-07
7.75186e-08
-8.46282e-09
-2.02762e-08
-1.69854e-08
1.20865e-10
-1.00946e-08
6.17597e-08
9.8161e-09
1.31274e-07
4.52682e-08
2.03076e-07
8.41046e-08
2.52576e-07
1.39439e-07
3.00312e-07
1.85497e-07
3.03886e-07
2.44657e-07
3.03994e-07
2.81684e-07
2.46098e-07
3.10765e-07
1.76078e-07
6.23103e-08
-1.66311e-09
7.35773e-09
-7.21321e-09
1.64522e-08
3.18748e-09
5.55261e-08
2.98024e-08
1.08617e-07
7.26654e-08
1.62714e-07
1.22808e-07
2.0016e-07
1.88212e-07
2.3953e-07
2.47273e-07
2.39388e-07
3.16013e-07
2.44897e-07
3.62109e-07
1.95223e-07
3.92487e-07
1.32935e-07
6.15863e-08
5.97793e-09
5.12543e-08
1.01679e-08
4.34904e-08
3.21005e-08
5.03102e-08
7.72717e-08
7.48818e-08
1.45043e-07
1.02789e-07
2.25755e-07
1.13888e-07
3.26892e-07
1.49572e-07
4.21789e-07
1.33658e-07
5.28393e-07
1.6676e-07
5.99247e-07
1.04576e-07
6.46318e-07
6.72274e-08
6.42092e-08
5.93571e-08
1.06749e-07
1.5955e-07
2.36606e-07
3.37613e-07
4.54702e-07
6.00957e-07
7.41715e-07
9.04387e-07
1.00384e-06
1.07788e-06
)
;

boundaryField
{
    rotor
    {
        type            calculated;
        value           uniform 0;
    }
    stator
    {
        type            calculated;
        value           uniform -0;
    }
    front
    {
        type            empty;
        value           nonuniform 0();
    }
    back
    {
        type            empty;
        value           nonuniform 0();
    }
    procBoundary0to1
    {
        type            processor;
        value           nonuniform List<scalar> 
20
(
-3.2349e-05
-2.3258e-05
-1.9703e-05
-1.8366e-05
-2.45396e-06
-1.79949e-06
-1.37336e-06
-1.08231e-06
-8.74271e-07
-7.21116e-07
-6.05022e-07
-5.15333e-07
-4.44566e-07
-3.87852e-07
-3.42561e-07
-3.12419e-07
-3.15592e-07
-3.91326e-07
-6.17909e-07
-8.88489e-07
)
;
    }
    procBoundary0to2
    {
        type            processor;
        value           nonuniform List<scalar> 
20
(
3.16523e-05
2.2947e-05
1.95431e-05
1.82678e-05
2.38521e-06
1.74826e-06
1.33494e-06
1.05257e-06
8.526e-07
7.04753e-07
5.94354e-07
5.07982e-07
4.41693e-07
3.87146e-07
3.45158e-07
3.1708e-07
3.21944e-07
4.09048e-07
6.74102e-07
1.14831e-06
)
;
    }
}


// ************************************************************************* //
