/*--------------------------------*- C++ -*----------------------------------*\
  =========                 |
  \\      /  F ield         | OpenFOAM: The Open Source CFD Toolbox
   \\    /   O peration     | Website:  https://openfoam.org
    \\  /    A nd           | Version:  6
     \\/     M anipulation  |
\*---------------------------------------------------------------------------*/
FoamFile
{
    version     2.0;
    format      ascii;
    class       volVectorField;
    location    "1000";
    object      U;
}
// * * * * * * * * * * * * * * * * * * * * * * * * * * * * * * * * * * * * * //

dimensions      [0 1 -1 0 0 0 0];

internalField   nonuniform List<vector> 
768
(
(1.07733 -0.226076 -2.79904e-21)
(1.19488 -0.19175 0)
(1.10257 -0.199831 1.16378e-20)
(1.0134 -0.23379 0)
(0.965513 -0.279514 4.90259e-18)
(0.927562 -0.328508 -4.89534e-18)
(0.886425 -0.377736 0)
(0.842661 -0.425936 -1.70413e-17)
(0.796575 -0.472792 3.18296e-17)
(0.750623 -0.518702 -2.45123e-17)
(0.704775 -0.564164 -5.72282e-18)
(0.65989 -0.609667 -6.29778e-18)
(0.763289 -0.178754 -1.21575e-19)
(0.639166 -0.0977786 -3.14911e-19)
(0.46236 -0.0763433 3.1327e-19)
(0.369073 -0.0758318 0)
(0.327015 -0.0840823 -9.8316e-19)
(0.303823 -0.0961614 9.63703e-19)
(0.285984 -0.110222 0)
(0.269543 -0.125123 1.57234e-18)
(0.253301 -0.140509 -5.618e-18)
(0.237248 -0.15599 3.81466e-18)
(0.221252 -0.171614 4.69993e-18)
(0.205597 -0.187373 -7.40039e-18)
(0.703771 -0.0875388 3.33087e-20)
(0.507322 -0.0408403 0)
(0.323686 -0.0335298 -1.61145e-19)
(0.241901 -0.0354603 0)
(0.207093 -0.0412469 0)
(0.188433 -0.0489423 -6.8661e-19)
(0.174887 -0.0576912 2.75352e-18)
(0.163034 -0.0670844 -2.30653e-18)
(0.151832 -0.0768911 9.24846e-19)
(0.140981 -0.0869337 0)
(0.130363 -0.0971457 2.3157e-18)
(0.119962 -0.107506 -1.27223e-18)
(0.711641 0.0248691 -7.42249e-20)
(0.490705 0.0076675 6.83089e-20)
(0.30194 -0.00688134 1.42086e-19)
(0.222822 -0.0158572 3.9849e-19)
(0.189928 -0.0243606 -3.47043e-19)
(0.171701 -0.0332063 -5.08601e-19)
(0.158006 -0.0424387 0)
(0.145974 -0.0519418 0)
(0.134753 -0.0616497 8.47134e-19)
(0.124042 -0.071481 0)
(0.113684 -0.0814005 9.91136e-21)
(0.103569 -0.0914091 1.12757e-18)
(0.726558 0.148531 1.52486e-19)
(0.492649 0.0579882 1.67635e-21)
(0.300746 0.0191024 -1.67645e-19)
(0.222411 0.00192749 0)
(0.189624 -0.0100745 0)
(0.170551 -0.0210778 5.5494e-19)
(0.155749 -0.0318899 0)
(0.14273 -0.0426577 -1.60604e-18)
(0.130693 -0.0533821 -1.0398e-18)
(0.119339 -0.0640201 1.80157e-18)
(0.10843 -0.0746117 -3.21084e-18)
(0.0978089 -0.0851637 2.17424e-18)
(0.734123 0.285052 -1.62474e-20)
(0.493809 0.112381 -7.98971e-20)
(0.300389 0.0470179 1.59651e-19)
(0.222911 0.0209287 -4.38978e-20)
(0.189763 0.0049479 4.05026e-19)
(0.169595 -0.00858353 -1.15509e-18)
(0.15375 -0.0213321 1.46941e-18)
(0.139862 -0.0336622 1.30996e-19)
(0.127179 -0.0456171 0)
(0.115308 -0.0572432 0)
(0.103945 -0.068593 4.34809e-18)
(0.0928817 -0.0797681 1.73172e-19)
(0.732422 0.439454 -1.90266e-19)
(0.48954 0.172947 -2.19604e-19)
(0.29646 0.0778166 0)
(0.220143 0.0417295 -3.98708e-19)
(0.186667 0.0210829 5.39969e-19)
(0.165706 0.00460092 1.88161e-18)
(0.149207 -0.0103683 1.48241e-18)
(0.134922 -0.0243922 6.06139e-20)
(0.122012 -0.0376145 -3.75088e-18)
(0.109973 -0.0501856 1.90638e-18)
(0.0984772 -0.0622127 2.2661e-18)
(0.0871894 -0.0738543 8.75047e-20)
(0.717496 0.619727 9.16729e-20)
(0.477762 0.242523 2.70807e-19)
(0.287236 0.11229 0)
(0.212745 0.0642036 -5.17485e-19)
(0.179363 0.0380257 -5.3831e-19)
(0.158227 0.0180372 1.44933e-19)
(0.141778 0.000612159 -2.90827e-18)
(0.127726 -0.0151594 1.16348e-19)
(0.115096 -0.0296154 5.93779e-20)
(0.103333 -0.0430119 2.04971e-18)
(0.0920236 -0.0555723 -2.2389e-18)
(0.080811 -0.0674993 -6.99234e-20)
(0.667971 0.81586 -7.73336e-19)
(0.454337 0.323373 1.72185e-19)
(0.270513 0.150484 -8.31656e-19)
(0.199371 0.0877464 5.09126e-19)
(0.167237 0.0548906 0)
(0.147066 0.0309631 0)
(0.131618 0.010979 1.64287e-18)
(0.118538 -0.00646596 3.63612e-18)
(0.106758 -0.0220037 -1.83945e-18)
(0.0956898 -0.0360533 -2.04347e-18)
(0.0848995 -0.0489516 -2.19192e-18)
(0.0740369 -0.0609573 0)
(0.524092 0.942676 -2.05097e-20)
(0.406898 0.407961 6.29816e-19)
(0.242381 0.190046 1.28266e-18)
(0.178384 0.110481 0)
(0.149856 0.070248 1.43223e-18)
(0.132388 0.0423312 0)
(0.119134 0.0200058 1.14875e-19)
(0.107806 0.00116574 -1.64495e-18)
(0.0974127 -0.0151729 2.07076e-18)
(0.0874098 -0.0296314 0)
(0.0774274 -0.0426386 0)
(0.0671563 -0.0545114 -4.68198e-18)
(0.267213 0.947645 -1.16602e-18)
(0.320708 0.482869 7.25043e-19)
(0.195711 0.22301 1.43279e-19)
(0.148046 0.128693 -1.48662e-18)
(0.127357 0.0820731 -6.37753e-19)
(0.114804 0.0509925 -7.71708e-19)
(0.104957 0.0270075 -1.78355e-18)
(0.0960882 0.00731163 -5.72119e-18)
(0.0875009 -0.00943388 -1.99579e-18)
(0.0788496 -0.0239988 -4.23266e-18)
(0.0699025 -0.0368825 4.44526e-18)
(0.0604294 -0.0484198 4.63831e-18)
(-0.0099842 0.87956 1.22771e-18)
(0.146482 0.462958 -2.72343e-19)
(0.122306 0.23003 1.45909e-19)
(0.108037 0.136511 1.44954e-18)
(0.100959 0.0881591 0)
(0.0955287 0.0559972 -1.74697e-18)
(0.0900069 0.0315511 1.76317e-18)
(0.0840173 0.0117366 1.84034e-18)
(0.0774619 -0.00493885 -6.01656e-18)
(0.0703286 -0.0192938 4.18438e-18)
(0.0625737 -0.0318325 -4.39514e-18)
(0.0540555 -0.0428616 0)
(0.614552 -0.654974 2.17141e-17)
(0.569535 -0.700837 -5.94688e-17)
(0.523855 -0.747293 1.48739e-17)
(0.477727 -0.794586 4.40709e-17)
(0.43005 -0.841925 -4.46317e-17)
(0.381011 -0.888354 9.75544e-18)
(0.330245 -0.931938 6.139e-19)
(0.278219 -0.969198 -9.74968e-18)
(0.226539 -1.00941 -2.24825e-17)
(0.188558 -1.1261 0)
(0.168963 -1.25681 0)
(0.200966 -1.13317 -2.0652e-20)
(0.190002 -0.203359 -4.40113e-19)
(0.174593 -0.219584 5.59737e-18)
(0.159183 -0.236229 4.39123e-21)
(0.143763 -0.253093 0)
(0.128204 -0.27019 5.3812e-18)
(0.112765 -0.287322 0)
(0.0975782 -0.304525 4.06153e-18)
(0.0832132 -0.323491 6.57943e-18)
(0.0715061 -0.358143 -4.62641e-18)
(0.0689622 -0.456072 0)
(0.0839477 -0.654689 0)
(0.177153 -0.796403 -2.7195e-20)
(0.109673 -0.118014 1.48834e-18)
(0.0994933 -0.128709 -1.37996e-18)
(0.0893606 -0.139637 1.60444e-18)
(0.0792937 -0.150814 0)
(0.0693081 -0.162303 -1.83578e-18)
(0.0595419 -0.174139 4.03406e-18)
(0.0500975 -0.186525 -5.00698e-18)
(0.0410568 -0.200968 -5.52992e-18)
(0.0334433 -0.22806 3.70767e-18)
(0.0306164 -0.305478 0)
(0.0385971 -0.495553 2.61792e-18)
(0.111802 -0.703894 2.577e-18)
(0.0935952 -0.101529 1.22394e-18)
(0.0837025 -0.111819 -2.64072e-18)
(0.0738296 -0.12236 2.93299e-18)
(0.0639753 -0.133226 -2.93327e-18)
(0.054134 -0.144558 0)
(0.0444045 -0.156433 1.71571e-18)
(0.0347458 -0.169025 1.90466e-18)
(0.0251891 -0.183341 1.09692e-18)
(0.0158856 -0.208089 -2.15066e-18)
(0.00741829 -0.280829 0)
(-0.00331972 -0.470531 -2.41809e-18)
(0.0111437 -0.690234 9.27235e-18)
(0.087323 -0.0957743 2.537e-18)
(0.076847 -0.106517 -1.22225e-18)
(0.0663151 -0.117528 0)
(0.0556304 -0.128959 0)
(0.0448524 -0.140993 1.58919e-18)
(0.0338639 -0.153793 -1.70799e-18)
(0.0228664 -0.167565 2.0873e-20)
(0.0115697 -0.183124 0)
(-0.000264737 -0.207852 -1.08404e-18)
(-0.0157411 -0.279266 1.67128e-18)
(-0.0496325 -0.471168 -4.38569e-18)
(-0.100655 -0.701118 -4.50986e-18)
(0.0818723 -0.0908568 -4.94251e-18)
(0.0708024 -0.102038 2.55781e-18)
(0.0594824 -0.113441 5.71884e-18)
(0.0478712 -0.125343 1.84529e-19)
(0.0358364 -0.137921 -7.86366e-18)
(0.0233926 -0.151548 -3.35938e-18)
(0.0105356 -0.166434 2.96009e-20)
(-0.00291193 -0.183405 0)
(-0.0178244 -0.208954 0)
(-0.0412694 -0.278731 -1.60261e-18)
(-0.100534 -0.472665 -1.98451e-18)
(-0.230536 -0.71417 4.34096e-18)
(0.0758852 -0.0852632 2.56783e-18)
(0.0643426 -0.0966189 -5.21021e-18)
(0.0523756 -0.108174 -2.82515e-18)
(0.0398537 -0.120142 1.07685e-19)
(0.0265732 -0.132929 3.36708e-18)
(0.0125224 -0.146825 3.5732e-18)
(-0.00251341 -0.162412 1.85428e-18)
(-0.0185691 -0.180507 1.94704e-18)
(-0.0373582 -0.20665 -2.01695e-18)
(-0.0691503 -0.274636 0)
(-0.15649 -0.468853 3.74894e-18)
(-0.370875 -0.712487 -3.94172e-18)
(0.0694259 -0.0789879 0)
(0.0576173 -0.0902804 2.64529e-18)
(0.0451754 -0.10162 0)
(0.0318459 -0.113317 -6.27395e-20)
(0.01743 -0.125721 -1.69087e-19)
(0.00165159 -0.139354 6.45027e-18)
(-0.0156629 -0.15481 -6.94464e-18)
(-0.0349704 -0.17324 0)
(-0.058215 -0.199753 -1.97719e-18)
(-0.0996651 -0.26475 1.43409e-18)
(-0.217988 -0.456571 -5.00743e-18)
(-0.523731 -0.703255 1.07041e-17)
(0.0628099 -0.072312 2.54788e-18)
(0.050959 -0.0832687 -2.54763e-18)
(0.0382226 -0.0940986 -2.74229e-18)
(0.024305 -0.105093 2.87819e-18)
(0.00887952 -0.116632 3.12617e-18)
(-0.00844214 -0.129219 -9.53224e-18)
(-0.0281331 -0.14363 3.41864e-18)
(-0.0509047 -0.161214 0)
(-0.0795238 -0.186605 1.96082e-18)
(-0.131667 -0.247181 0)
(-0.282622 -0.430714 4.49216e-18)
(-0.654725 -0.634743 -1.16908e-17)
(0.0563195 -0.0655169 0)
(0.0446433 -0.075914 -5.15453e-18)
(0.0318378 -0.085951 -2.66835e-18)
(0.0175739 -0.0958935 -5.76276e-18)
(0.00144449 -0.106068 2.90374e-18)
(-0.0171141 -0.116919 3.14586e-18)
(-0.0388572 -0.129172 0)
(-0.0650517 -0.144226 0)
(-0.099391 -0.166501 0)
(-0.162814 -0.218721 0)
(-0.347949 -0.384662 -1.34598e-18)
(-0.764179 -0.525419 2.3839e-19)
(0.050178 -0.0588831 2.49031e-18)
(0.0388749 -0.0685198 2.61655e-18)
(0.0262303 -0.0775555 1.0633e-17)
(0.0119156 -0.0861899 2.67364e-18)
(-0.00453251 -0.094629 1.14869e-17)
(-0.0237871 -0.103137 -2.94369e-18)
(-0.0468906 -0.112195 -3.07855e-18)
(-0.075696 -0.122852 0)
(-0.115036 -0.138562 -3.37027e-18)
(-0.188493 -0.176619 -2.08954e-18)
(-0.403448 -0.307465 -2.186e-18)
(-0.848994 -0.393227 -2.01437e-25)
(0.0445508 -0.0526116 0)
(0.0337872 -0.0613355 0)
(0.0215156 -0.0692327 -1.04092e-17)
(0.00744302 -0.0764199 -8.18927e-18)
(-0.00887697 -0.0829374 -2.90248e-18)
(-0.0281362 -0.0887715 0)
(-0.0515161 -0.0939223 3.04335e-18)
(-0.0811964 -0.0985078 0)
(-0.122469 -0.103793 1.60162e-19)
(-0.197159 -0.116964 1.98289e-18)
(-0.410834 -0.17162 9.12814e-19)
(-1.19495 -0.214747 4.45013e-18)
(-0.437172 0.311978 -5.83666e-19)
(-0.0711217 0.31274 0)
(0.0372051 0.199297 1.18235e-19)
(0.064969 0.129877 0)
(0.0740783 0.087201 0)
(0.0764113 0.0569825 1.72352e-18)
(0.0753373 0.0335547 0)
(0.0722187 0.0144234 3.81851e-18)
(0.0676996 -0.00170298 4.0046e-18)
(0.0621128 -0.0155646 4.24375e-18)
(0.0556099 -0.0275726 -2.23971e-18)
(0.0481512 -0.0379482 -2.33347e-18)
(-0.261437 0.142331 -2.90571e-19)
(-0.0997984 0.193517 -2.22593e-19)
(-0.00611692 0.154631 -3.91408e-19)
(0.0336499 0.113112 0)
(0.0515278 0.0804503 -9.01519e-19)
(0.0593652 0.0545499 4.62781e-18)
(0.0618716 0.033368 0)
(0.0612247 0.0155949 1.99385e-18)
(0.0585369 0.00039217 -1.99432e-18)
(0.0543999 -0.012762 -4.18243e-18)
(0.0491416 -0.0241284 -4.37289e-18)
(0.0428288 -0.0337655 4.50632e-18)
(-0.168998 0.0685905 -5.50294e-19)
(-0.0887482 0.123994 7.47296e-19)
(-0.0236583 0.116311 -1.39663e-18)
(0.0139756 0.094003 9.15541e-19)
(0.0344996 0.070872 0)
(0.0452321 0.0499587 -7.46533e-18)
(0.0501163 0.0316079 0)
(0.0513361 0.0155877 3.9777e-18)
(0.0501375 0.00153987 -2.02624e-18)
(0.0472703 -0.010789 4.27035e-18)
(0.0431948 -0.021494 2.17855e-18)
(0.0380971 -0.0303939 -4.45669e-18)
(-0.117161 0.0376719 8.13167e-19)
(-0.0736937 0.0816653 1.01629e-18)
(-0.0290477 0.0869983 0)
(0.00251605 0.0762992 0)
(0.0223835 0.0606347 0)
(0.0340494 0.0443174 7.57461e-18)
(0.0402064 0.0288633 3.89996e-18)
(0.0426527 0.0147256 -5.8898e-18)
(0.0425583 0.00193911 6.08927e-18)
(0.0407225 -0.00953887 -4.13472e-18)
(0.0377219 -0.0196527 0)
(0.0339758 -0.0279803 4.38222e-18)
(0.0395392 -0.0468333 -4.73854e-18)
(0.029449 -0.0545318 -4.90284e-18)
(0.0177176 -0.0612253 5.11007e-18)
(0.00414646 -0.0669422 -5.22288e-18)
(-0.0116111 -0.0715576 0)
(-0.0301617 -0.0747647 -5.52381e-18)
(-0.0525494 -0.0759905 7.1165e-18)
(-0.0806466 -0.0740705 -1.45336e-18)
(-0.118564 -0.0665822 3.09521e-18)
(-0.179684 -0.0470586 -8.14061e-19)
(-0.311058 0.0168985 1.06176e-18)
(-0.591972 0.364323 -7.49678e-19)
(0.0352452 -0.0416464 4.66961e-18)
(0.0259025 -0.0482314 4.83244e-18)
(0.0148026 -0.053722 0)
(0.00191908 -0.0580571 2.55496e-18)
(-0.0129439 -0.0609637 5.25142e-18)
(-0.0302028 -0.0619099 2.78415e-18)
(-0.0505356 -0.0599374 -1.10178e-17)
(-0.0749987 -0.0532308 -2.7601e-18)
(-0.105294 -0.0381352 -2.78748e-18)
(-0.144928 -0.00611698 -7.16821e-19)
(-0.199165 0.0668612 7.97723e-19)
(-0.215935 0.249946 4.18062e-19)
(0.0317354 -0.0370583 0)
(0.0231324 -0.042432 -7.11238e-18)
(0.0126734 -0.046768 2.39525e-18)
(0.00057576 -0.0498917 2.4364e-18)
(-0.0131891 -0.0513912 5.08993e-18)
(-0.0288082 -0.0506118 -2.57234e-18)
(-0.0465604 -0.0464692 6.68108e-18)
(-0.066673 -0.0371024 6.673e-18)
(-0.0889435 -0.0192139 1.43274e-18)
(-0.111732 0.0131302 -1.34729e-18)
(-0.127569 0.0707103 -3.25506e-19)
(-0.0969095 0.160127 3.62726e-21)
(0.0291614 -0.033091 0)
(0.0210939 -0.0370948 1.40112e-20)
(0.0111722 -0.0403477 0)
(-0.000132471 -0.042464 -9.69513e-18)
(-0.0127162 -0.0428921 2.49032e-18)
(-0.0265817 -0.0409279 -7.47724e-18)
(-0.0416804 -0.0355322 0)
(-0.057648 -0.0251269 -5.19811e-18)
(-0.0732507 -0.00734162 2.60792e-18)
(-0.0851805 0.0210544 -2.51242e-18)
(-0.0851597 0.062976 -9.27212e-19)
(-0.0521134 0.111397 -3.06152e-19)
(-0.0854465 0.0240681 -1.0684e-18)
(-0.0594641 0.0566879 -9.92129e-19)
(-0.028311 0.0656183 0)
(-0.00311808 0.0611294 0)
(0.0144643 0.0506759 2.89278e-18)
(0.0257062 0.0381298 -2.82077e-18)
(0.0321988 0.0253253 7.22172e-20)
(0.0352397 0.0130233 5.89674e-18)
(0.0358168 0.00150788 -1.94717e-18)
(0.0347021 -0.00914842 2.08038e-18)
(0.0326159 -0.0188505 -1.05076e-17)
(0.0304544 -0.0271374 0)
(-0.065262 0.0158144 7.84342e-19)
(-0.0488357 0.0404407 7.58865e-19)
(-0.0266098 0.0501091 -1.97536e-18)
(-0.00661096 0.0491707 -9.58172e-19)
(0.00860415 0.0423516 -2.81705e-18)
(0.0190439 0.0327759 0)
(0.0255014 0.0222155 -5.77814e-18)
(0.0288397 0.0115572 -1.99331e-18)
(0.0298364 0.00119283 -3.96481e-18)
(0.029199 -0.00878923 0)
(0.0278653 -0.0186469 8.26081e-18)
(0.0283485 -0.0289764 0)
(-0.0515678 0.0110065 5.22103e-19)
(-0.0406354 0.0297868 -2.00828e-18)
(-0.0243754 0.0388254 1.93811e-18)
(-0.00848283 0.0397187 9.58906e-19)
(0.0044582 0.0353336 -1.91459e-18)
(0.0138714 0.0280266 9.55571e-19)
(0.0200047 0.0193305 0)
(0.0233731 0.0101348 1.90862e-18)
(0.0245226 0.000838119 1.95687e-18)
(0.0240516 -0.00857481 2.02143e-18)
(0.0235545 -0.0195871 -1.05991e-17)
(0.0282442 -0.0371901 0)
(-0.0418687 0.00800848 -1.02605e-18)
(-0.0342337 0.0225375 2.99173e-18)
(-0.0220679 0.0305122 0)
(-0.00938761 0.032261 -3.859e-18)
(0.00153915 0.0294844 0)
(0.00986277 0.0238853 -1.918e-18)
(0.0155103 0.0167323 -1.9045e-18)
(0.0187183 0.0088343 9.65735e-18)
(0.019806 0.000580495 2.42476e-20)
(0.0192259 -0.00816967 -1.98505e-18)
(0.0188015 -0.0208931 9.75253e-18)
(0.0270214 -0.057135 -1.86666e-17)
(0.0278738 -0.0298693 0)
(0.0196011 -0.0322062 -4.52192e-18)
(0.00989554 -0.0344797 0)
(-0.000721458 -0.0357958 2.3608e-18)
(-0.0121676 -0.0354258 2.37959e-18)
(-0.0243502 -0.0326559 1.21767e-17)
(-0.0369988 -0.0265824 3.66251e-18)
(-0.0494011 -0.0160074 -1.231e-18)
(-0.0599149 0.00053107 2.43956e-18)
(-0.0651171 0.0242757 5.58962e-20)
(-0.0585272 0.0544861 1.20191e-18)
(-0.0299368 0.0825975 0)
(0.0297223 -0.0279062 2.29777e-18)
(0.0193078 -0.0276028 -4.46259e-18)
(0.00933403 -0.0290021 2.24508e-18)
(-0.000654096 -0.0298208 0)
(-0.010976 -0.0290212 4.64798e-18)
(-0.0215602 -0.025921 -4.74653e-18)
(-0.0320388 -0.0198061 -9.50884e-18)
(-0.0415829 -0.00986618 0)
(-0.0485706 0.00464654 -2.39484e-18)
(-0.0501447 0.0238417 4.09275e-20)
(-0.0419686 0.0457453 -2.80653e-19)
(-0.0193396 0.0634145 2.80808e-19)
(0.0380772 -0.0277887 0)
(0.0201621 -0.023331 7.74505e-22)
(0.00899852 -0.0239302 -8.9106e-18)
(-0.000447753 -0.02453 8.96723e-18)
(-0.00970652 -0.0235726 -4.56165e-18)
(-0.0188529 -0.0204349 -2.29699e-18)
(-0.0275061 -0.0146044 5.7794e-18)
(-0.034845 -0.00559858 4.58443e-18)
(-0.039439 0.0068416 1.14916e-18)
(-0.0390952 0.0222357 2.28132e-18)
(-0.0310598 0.0384121 0)
(-0.0134158 0.0502253 5.35959e-19)
(0.0583505 -0.0260122 -1.98961e-17)
(0.0212525 -0.0184774 7.95781e-18)
(0.00846204 -0.019113 2.00128e-17)
(-0.000312201 -0.0198336 -1.10193e-17)
(-0.0085174 -0.0189298 -6.62765e-18)
(-0.0163729 -0.0159427 -6.65004e-18)
(-0.0235085 -0.0105682 -2.23229e-18)
(-0.0291676 -0.00258222 -4.49518e-18)
(-0.032158 0.00796221 0)
(-0.0308616 0.0203279 5.43664e-19)
(-0.0236038 0.0325176 -5.43694e-19)
(-0.00977695 0.0408087 -1.04956e-18)
(-0.0347622 0.00603307 -1.28476e-21)
(-0.0292314 0.017446 -1.96209e-18)
(-0.019918 0.0242912 0)
(-0.00971023 0.026368 2.83653e-18)
(-0.000522261 0.024649 4.74542e-18)
(0.00675188 0.0203348 1.86195e-18)
(0.0118469 0.0144534 1.88713e-18)
(0.0147883 0.00771415 -7.57454e-18)
(0.0156886 0.000536935 0)
(0.0146791 -0.00709903 -6.04186e-18)
(0.011844 -0.0190318 8.85763e-18)
(-0.00755104 -0.0593952 4.38226e-17)
(-0.0294269 0.00466599 9.91998e-19)
(-0.0252829 0.0137589 0)
(-0.018019 0.0195756 3.83122e-18)
(-0.00973248 0.0216993 0)
(-0.00199361 0.0206656 3.29924e-20)
(0.00432637 0.0173252 7.48843e-18)
(0.00886454 0.012486 1.87109e-18)
(0.0115123 0.00678135 -9.39053e-18)
(0.0122239 0.000650473 0)
(0.010936 -0.00575733 5.96528e-18)
(0.0070215 -0.0156859 -9.32637e-18)
(-0.0147644 -0.0492711 0)
(-0.0253381 0.0036849 -4.86817e-19)
(-0.0221574 0.0110233 1.91729e-18)
(-0.0163803 0.0159419 -3.75652e-18)
(-0.00958058 0.0179755 4.66503e-18)
(-0.00305021 0.0173851 -1.82434e-18)
(0.00242903 0.0147857 -4.57736e-18)
(0.00644754 0.0108028 -1.1077e-17)
(0.0088195 0.00600616 9.21822e-18)
(0.00941075 0.000840193 0)
(0.00810707 -0.00437116 -5.85845e-18)
(0.00441837 -0.0116896 -2.98756e-18)
(-0.0118516 -0.0351527 0)
(-0.0221562 0.00295926 -2.37305e-19)
(-0.0196538 0.00894718 -2.11017e-18)
(-0.0149903 0.013113 4.67602e-19)
(-0.00936201 0.0149881 2.07208e-20)
(-0.00381873 0.0146803 -3.63744e-18)
(0.000937042 0.0126445 0)
(0.00449166 0.0093664 9.06282e-18)
(0.00662353 0.00535166 -1.81775e-18)
(0.00716221 0.00103869 0)
(0.00601411 -0.0031583 1.5275e-17)
(0.00293114 -0.00841681 0)
(-0.00840736 -0.0241617 0)
(-0.0196465 0.00241111 -9.39501e-19)
(-0.0176428 0.00734351 0)
(-0.0138143 0.0108777 2.75435e-18)
(-0.00910631 0.0125774 -3.60531e-18)
(-0.00438147 0.012439 4.97544e-21)
(-0.000238424 0.0108389 8.07696e-18)
(0.00291297 0.00813553 -1.78935e-18)
(0.00484676 0.00478816 -5.3816e-18)
(0.00538142 0.00120581 1.79995e-18)
(0.00445364 -0.00216506 -7.45365e-18)
(0.00202654 -0.00597218 -5.46236e-18)
(-0.00577295 -0.016658 1.3464e-17)
(-0.017646 0.00198871 9.21216e-19)
(-0.0160082 0.00608546 0)
(-0.0128242 0.00909933 -3.59306e-18)
(-0.00885824 0.0106273 8.88606e-19)
(-0.0048057 0.010564 -8.88591e-19)
(-0.00116856 0.00931121 -8.80165e-18)
(0.00163372 0.00706636 7.0535e-18)
(0.00341306 0.00429009 8.7917e-18)
(0.00396754 0.00131862 0)
(0.00328489 -0.00139577 1.82636e-18)
(0.00143952 -0.00418013 -2.60883e-18)
(-0.00395979 -0.0114822 0)
(-0.0160691 0.00165687 2.24817e-19)
(-0.0147119 0.00508552 -2.01427e-18)
(-0.0120164 0.00766941 0)
(-0.00865314 0.00902819 0)
(-0.00514556 0.00900547 0)
(-0.00191852 0.00801606 -1.73356e-18)
(0.000597976 0.00614754 -5.18166e-18)
(0.00226331 0.00384609 -6.92946e-18)
(0.00285459 0.00138287 1.73468e-18)
(0.00240555 -0.000808316 3.01483e-21)
(0.00104771 -0.00288344 -2.25137e-17)
(-0.00260873 -0.00787853 -9.87508e-17)
(-0.0150747 0.00139811 8.88007e-19)
(-0.0139235 0.00430498 2.19287e-18)
(-0.011588 0.00653853 -4.37201e-19)
(-0.00867122 0.00776961 8.60508e-19)
(-0.00556149 0.00771978 5.15359e-18)
(-0.00260979 0.0069506 5.98996e-18)
(-0.000291203 0.00535518 -6.81658e-18)
(0.00132639 0.00344326 1.53123e-17)
(0.00197852 0.0013789 0)
(0.00174976 -0.000409151 0)
(0.000783691 -0.00197101 1.68082e-17)
(-0.00172448 -0.00536522 1.18449e-17)
(-0.0156251 0.00125192 -9.57675e-19)
(-0.0145758 0.00388572 -4.74166e-19)
(-0.0123356 0.00594106 4.74298e-19)
(-0.00960262 0.00703943 0)
(-0.00652921 0.00707979 -1.48974e-17)
(-0.003572 0.00633399 -9.26105e-18)
(-0.00118094 0.00494658 7.39114e-18)
(0.000547135 0.00319229 -7.37654e-18)
(0.00135604 0.00137537 1.84665e-18)
(0.00133709 -0.000192908 1.88883e-18)
(0.000644886 -0.00143638 -2.51722e-18)
(-0.00108676 -0.00364529 9.08011e-17)
(-0.0203681 0.00133377 -1.46015e-18)
(-0.0192203 0.00418767 0)
(-0.0166058 0.00638926 -5.83378e-18)
(-0.0133696 0.00748179 1.44257e-18)
(-0.00953156 0.00774144 8.61883e-18)
(-0.00584166 0.00680469 -1.42482e-18)
(-0.00267654 0.00540432 -5.71338e-18)
(-0.000370319 0.00344236 1.99586e-17)
(0.000920933 0.00154244 -1.99477e-17)
(0.00118216 -9.5834e-05 4.67812e-22)
(0.000673086 -0.00122635 -3.57882e-18)
(-0.00066735 -0.0026996 0)
(-0.0357106 0.00177876 2.56645e-18)
(-0.0339518 0.00565025 -1.12105e-17)
(-0.0298831 0.00843583 2.56705e-17)
(-0.0246925 0.00997814 0)
(-0.0183835 0.010448 -3.36922e-18)
(-0.0121379 0.00917909 3.37422e-18)
(-0.00660496 0.00725571 2.01289e-17)
(-0.00238696 0.00457249 -1.00471e-16)
(0.000247125 0.00203063 5.35544e-17)
(0.00122313 -7.79088e-05 0)
(0.000929701 -0.00130161 0)
(-0.000204131 -0.0022157 0)
(-0.0751895 0.00288167 2.45793e-17)
(-0.0712113 0.00888998 4.81847e-17)
(-0.063551 0.0132748 -9.61758e-17)
(-0.0536924 0.0159314 1.20408e-17)
(-0.0414164 0.0168384 -2.43091e-17)
(-0.0287534 0.014861 -6.07835e-17)
(-0.0172658 0.0116759 -4.84951e-17)
(-0.00814639 0.00733136 2.42154e-17)
(-0.00203245 0.00328342 -1.69516e-16)
(0.00088088 0.000119833 -2.42237e-17)
(0.00121634 -0.00140786 0)
(0.000166337 -0.00184174 -2.5486e-16)
(0.0596133 0.00928112 4.63528e-17)
(0.0190633 -0.0115386 1.27149e-17)
(0.0072644 -0.014596 -8.95339e-18)
(-0.000363653 -0.0157312 -1.07565e-17)
(-0.00747999 -0.0150064 1.08144e-17)
(-0.0141752 -0.0122703 1.08842e-17)
(-0.0200539 -0.00741976 -1.08585e-18)
(-0.0244383 -0.000425605 -2.1688e-18)
(-0.0263595 0.00847382 1.08237e-18)
(-0.0246534 0.0184646 0)
(-0.0183248 0.0278324 0)
(-0.0073881 0.033884 1.35653e-21)
(0.0486823 0.0154215 0)
(0.0154891 -0.00690959 1.75058e-20)
(0.00581171 -0.0109011 0)
(-0.00054613 -0.0122895 8.4345e-18)
(-0.00660215 -0.0117321 -2.11214e-18)
(-0.012264 -0.00927318 4.22801e-18)
(-0.0171019 -0.00495078 -1.16196e-17)
(-0.020516 0.00113243 1.05759e-18)
(-0.021727 0.0086411 0)
(-0.019906 0.0167753 -4.1438e-18)
(-0.0144847 0.0241126 0)
(-0.00572965 0.0286708 1.00394e-18)
(0.0345228 0.0120174 0)
(0.0114759 -0.00442897 -1.6144e-17)
(0.0043749 -0.00812801 2.14772e-18)
(-0.000775051 -0.00949958 0)
(-0.0058593 -0.00904013 8.2241e-18)
(-0.0106139 -0.00683836 2.06411e-18)
(-0.0145928 -0.00300832 7.248e-18)
(-0.0172643 0.00227117 -6.16352e-18)
(-0.0180033 0.00862198 1.02613e-18)
(-0.0162252 0.0153056 8.10555e-18)
(-0.0116132 0.0211456 1.9952e-18)
(-0.00453368 0.0246719 -4.91707e-19)
(0.0238597 0.00849368 -6.06474e-17)
(0.00824362 -0.00299677 0)
(0.00313787 -0.00606718 0)
(-0.000990872 -0.0072695 1.00643e-17)
(-0.00522038 -0.00684267 -1.00727e-17)
(-0.00919246 -0.00486359 2.01476e-18)
(-0.0124611 -0.00147293 -2.01477e-18)
(-0.014562 0.00311018 4.02652e-18)
(-0.014989 0.00850645 3.98327e-18)
(-0.0133315 0.0140473 -1.61423e-20)
(-0.00942278 0.0187727 -1.95624e-18)
(-0.00363916 0.0215588 4.80823e-19)
(0.0165264 0.00588406 5.80187e-17)
(0.00583418 -0.00212218 0)
(0.00214397 -0.00453511 2.0498e-18)
(-0.0011559 -0.00550027 -1.77264e-17)
(-0.00465943 -0.00506481 0)
(-0.00796027 -0.00326623 -9.83354e-18)
(-0.0106469 -0.000256469 1.0805e-17)
(-0.0123046 0.00373737 -8.8096e-18)
(-0.0125269 0.0083491 -2.93549e-18)
(-0.0110276 0.0129898 -8.69843e-18)
(-0.00771647 0.0168602 0)
(-0.00295463 0.0191068 -9.42451e-19)
(0.0114779 0.00402846 1.39111e-17)
(0.00408188 -0.00154645 -1.41299e-17)
(0.00138208 -0.00338084 0)
(-0.00125907 -0.00409585 9.90769e-21)
(-0.0041531 -0.00362663 0)
(-0.00688624 -0.00197487 1.94415e-18)
(-0.00909231 0.00071295 -9.62588e-18)
(-0.010408 0.00420784 6.72058e-18)
(-0.0104948 0.0081817 4.75796e-18)
(-0.00917143 0.0121022 3.78282e-18)
(-0.00636642 0.0153184 -1.86748e-18)
(-0.00241744 0.0171565 4.61849e-19)
(0.00794779 0.00269718 0)
(0.00282309 -0.00115404 3.2494e-17)
(0.000821583 -0.00250706 1.75336e-17)
(-0.0013013 -0.00298885 5.66805e-18)
(-0.00368648 -0.00246936 0)
(-0.00594695 -0.000931372 9.42464e-18)
(-0.00776074 0.00149518 -9.43496e-19)
(-0.00881206 0.00458155 -4.45046e-21)
(-0.00881858 0.00804154 -4.66309e-18)
(-0.00766428 0.0113986 0)
(-0.00528718 0.0140963 2.81308e-21)
(-0.00198534 0.015629 1.34046e-26)
(0.00548264 0.00176538 -1.02173e-16)
(0.00195475 -0.000880586 -4.41905e-17)
(0.0004398 -0.00186038 -1.33294e-17)
(-0.00128107 -0.00212758 -1.47881e-17)
(-0.00326682 -0.00153896 0)
(-0.00515255 -5.8142e-05 1.84219e-18)
(-0.00665835 0.00219723 -2.76046e-18)
(-0.00752319 0.0049931 4.37068e-21)
(-0.00747267 0.00809259 9.13905e-19)
(-0.00648502 0.0110395 0)
(-0.00443667 0.0133716 1.79396e-18)
(-0.0016591 0.014686 8.87115e-19)
(0.00381447 0.00110849 -1.91232e-20)
(0.00144293 -0.000745771 2.17175e-17)
(0.000239215 -0.00146448 0)
(-0.00126272 -0.00154437 2.01121e-18)
(-0.00302274 -0.00080269 -1.37849e-21)
(-0.0047098 0.000775984 -7.97652e-18)
(-0.00607012 0.00309609 6.95352e-18)
(-0.00681717 0.00589705 -8.91297e-18)
(-0.00677392 0.00895326 0)
(-0.00583428 0.0118204 -3.90982e-18)
(-0.00398702 0.0140272 0)
(-0.00147059 0.0152715 -1.92122e-18)
(0.00287021 0.000671157 1.01413e-16)
(0.00126788 -0.000790206 -3.82129e-18)
(0.000179862 -0.0013522 3.13026e-17)
(-0.00138379 -0.00118349 2.15755e-17)
(-0.00324058 -2.38045e-05 -2.15324e-17)
(-0.00506072 0.00212305 1.2286e-17)
(-0.00655373 0.00511707 -3.07907e-18)
(-0.00732244 0.00867363 1.06887e-17)
(-0.00733146 0.0124515 1.52094e-18)
(-0.00623148 0.0159688 1.12978e-17)
(-0.00425956 0.0186184 -2.23667e-18)
(-0.00156772 0.0201102 1.47909e-18)
(0.00235026 0.000162488 0)
(0.0013984 -0.00111499 0)
(0.000244895 -0.00152263 -5.82098e-17)
(-0.00174959 -0.000715874 0)
(-0.00421555 0.00167113 6.5037e-17)
(-0.00671552 0.00558747 -7.2076e-17)
(-0.00877119 0.0108044 -1.79765e-17)
(-0.00986298 0.0168375 2.50352e-17)
(-0.0099079 0.0231359 0)
(-0.0083892 0.0289024 -5.14675e-21)
(-0.00567796 0.033215 2.10337e-17)
(-0.00214566 0.0356466 0)
(0.00201733 -0.000344349 -2.39207e-16)
(0.00172839 -0.00170033 -2.66749e-16)
(0.000340052 -0.00159591 2.61934e-17)
(-0.00263634 0.000983031 0)
(-0.00653695 0.00658164 -2.61259e-17)
(-0.0106118 0.0150413 2.60541e-16)
(-0.0140166 0.0259066 -2.59976e-17)
(-0.0159029 0.0382481 -1.16265e-16)
(-0.0160455 0.050983 1.28829e-17)
(-0.0136011 0.0625211 -5.10679e-17)
(-0.00921551 0.0711626 -1.01402e-16)
(-0.003523 0.0762207 1.25676e-17)
)
;

boundaryField
{
    rotor
    {
        type            fixedValue;
        value           nonuniform List<vector> 
48
(
(0.201784 -0.00660572 0)
(0.20092 -0.0197889 0)
(0.199195 -0.0328873 0)
(0.196618 -0.0458448 0)
(0.193198 -0.0586061 0)
(0.188952 -0.0711164 0)
(0.183896 -0.0833222 0)
(0.178053 -0.0951712 0)
(0.171447 -0.106613 0)
(0.164107 -0.117597 0)
(0.156065 -0.128079 0)
(0.147354 -0.138012 0)
(0.138012 -0.147354 0)
(0.128079 -0.156065 0)
(0.117597 -0.164107 0)
(0.106613 -0.171447 0)
(0.0951712 -0.178053 0)
(0.0833222 -0.183896 0)
(0.0711164 -0.188952 0)
(0.0586061 -0.193198 0)
(0.0458448 -0.196618 0)
(0.0328873 -0.199195 0)
(0.0197889 -0.20092 0)
(0.00660572 -0.201784 0)
(0.214625 3.8523e-10 -0)
(0.239875 4.30551e-10 -0)
(0.265125 4.75872e-10 -0)
(0.290375 5.21193e-10 -0)
(0.315625 5.66514e-10 -0)
(0.340875 6.11835e-10 -0)
(0.366125 6.57157e-10 -0)
(0.391375 7.02478e-10 -0)
(0.416625 7.47799e-10 -0)
(0.441875 7.9312e-10 -0)
(0.467125 8.38441e-10 -0)
(0.492375 8.83762e-10 -0)
(-7.70459e-10 -0.214625 0)
(-8.61102e-10 -0.239875 0)
(-9.51744e-10 -0.265125 0)
(-1.04239e-09 -0.290375 0)
(-1.13303e-09 -0.315625 0)
(-1.22367e-09 -0.340875 0)
(-1.31431e-09 -0.366125 0)
(-1.40496e-09 -0.391375 0)
(-1.4956e-09 -0.416625 0)
(-1.58624e-09 -0.441875 0)
(-1.67688e-09 -0.467125 0)
(-1.76752e-09 -0.492375 0)
)
;
    }
    stator
    {
        type            noSlip;
    }
    front
    {
        type            empty;
    }
    back
    {
        type            empty;
    }
    procBoundary0to1
    {
        type            processor;
        value           nonuniform List<vector> 
20
(
(-0.372708 -0.599817 -1.4593e-18)
(-0.255543 -0.218603 -1.14779e-26)
(-0.163141 -0.097525 -3.30555e-19)
(-0.113326 -0.052248 -2.92258e-19)
(-0.0840119 -0.0299528 -5.63863e-19)
(-0.0645399 -0.0193627 1.39882e-18)
(-0.0511567 -0.0134627 8.06193e-19)
(-0.0416106 -0.00985 -2.38644e-18)
(-0.0345877 -0.00747958 1.03707e-18)
(-0.0293029 -0.00583293 5.06541e-19)
(-0.0252452 -0.00464177 -7.46931e-19)
(-0.0220856 -0.00374914 0)
(-0.0195894 -0.00306582 -1.19199e-18)
(-0.0175982 -0.00252703 -2.34224e-19)
(-0.0160301 -0.00210137 9.15108e-19)
(-0.0150544 -0.00176889 -1.1225e-18)
(-0.0156424 -0.00160021 9.71553e-19)
(-0.0205124 -0.00172417 0)
(-0.0360959 -0.00231147 0)
(-0.07568 -0.00366771 1.2706e-17)
)
;
    }
    procBoundary0to2
    {
        type            processor;
        value           nonuniform List<vector> 
20
(
(0.307082 0.430174 -5.92179e-19)
(0.139281 0.257199 6.08879e-19)
(0.0668703 0.166233 -2.70282e-19)
(0.0366377 0.115246 -1.08513e-18)
(0.0233977 0.083974 1.05654e-18)
(0.0153774 0.0640472 -2.5668e-19)
(0.0107295 0.0505281 1.03577e-18)
(0.00783725 0.0409484 -2.03479e-18)
(0.00593353 0.0339378 4.98601e-19)
(0.00461144 0.0286734 4.90893e-19)
(0.00366039 0.0246479 -4.82603e-19)
(0.00294946 0.0215164 9.46793e-19)
(0.00240958 0.0190579 -9.29075e-19)
(0.00199207 0.0171037 4.55655e-19)
(0.00165514 0.0155794 1.34058e-26)
(0.00141033 0.0146244 8.77957e-19)
(0.00125928 0.0151816 -1.89397e-18)
(0.00132971 0.0198669 1.44324e-18)
(0.00182201 0.0350961 0)
(0.00299774 0.0753611 2.43182e-17)
)
;
    }
}


// ************************************************************************* //
