/*--------------------------------*- C++ -*----------------------------------*\
  =========                 |
  \\      /  F ield         | OpenFOAM: The Open Source CFD Toolbox
   \\    /   O peration     | Website:  https://openfoam.org
    \\  /    A nd           | Version:  6
     \\/     M anipulation  |
\*---------------------------------------------------------------------------*/
FoamFile
{
    version     2.0;
    format      ascii;
    class       volScalarField;
    location    "1500";
    object      p;
}
// * * * * * * * * * * * * * * * * * * * * * * * * * * * * * * * * * * * * * //

dimensions      [0 2 -2 0 0 0 0];

internalField   nonuniform List<scalar> 
768
(
1.3289
1.41926
1.63888
1.9155
2.23618
2.57181
2.92779
3.28011
3.64382
4.00121
4.36758
4.72425
1.21818
1.39077
1.60361
1.85299
2.18427
2.54723
2.92196
3.29159
3.66267
4.02759
4.39469
4.75577
1.00718
1.27615
1.49033
1.71485
2.05352
2.4484
2.8547
3.25172
3.64124
4.02101
4.39689
4.76658
0.83945
1.16102
1.38362
1.61784
1.97585
2.39537
2.82367
3.23882
3.64071
4.029
4.40941
4.78223
0.737022
1.09851
1.32615
1.58616
1.96799
2.40844
2.84459
3.26814
3.66904
4.05874
4.43308
4.804
0.687745
1.07468
1.32082
1.60791
2.01984
2.46445
2.9082
3.32239
3.72249
4.09806
4.46836
4.82301
0.680739
1.10141
1.37089
1.69229
2.11773
2.56929
3.00055
3.40754
3.78896
4.1542
4.5042
4.84781
0.700935
1.16701
1.4731
1.83258
2.27132
2.71347
3.12832
3.51368
3.87459
4.21774
4.5478
4.86993
0.758529
1.28165
1.6403
2.03207
2.47198
2.8943
3.28176
3.63826
3.97164
4.28851
4.59383
4.89186
0.862463
1.46373
1.87623
2.29439
2.71743
3.10503
3.45449
3.77508
4.07592
4.36298
4.64098
4.91283
1.07764
1.76793
2.22064
2.62375
3.00083
3.33615
3.63777
3.91722
4.18222
4.43792
4.68725
4.93224
1.57434
2.29087
2.69585
3.01838
3.31055
3.57618
3.82322
4.05862
4.28695
4.5109
4.73172
4.95015
5.08682
5.439
5.79509
6.13954
6.48863
6.82912
7.17155
7.50171
7.81864
8.05885
8.25457
8.44706
5.11815
5.47442
5.83158
6.18263
6.53577
6.88677
7.24274
7.59463
7.91923
8.16059
8.36946
8.58062
5.13494
5.49951
5.86484
6.22864
6.59723
6.97036
7.35371
7.73806
8.08315
8.31764
8.53005
8.81177
5.15259
5.52032
5.88977
6.26131
6.63989
7.02822
7.43061
7.83907
8.21192
8.46705
8.7032
9.01916
5.1668
5.53268
5.89664
6.26878
6.64576
7.03951
7.44481
7.86958
8.26563
8.55553
8.81197
9.17376
5.18096
5.53106
5.89089
6.24893
6.62366
7.00438
7.41278
7.83309
8.24915
8.56426
8.82042
9.23364
5.18528
5.52433
5.864
6.21115
6.56557
6.93688
7.3264
7.74342
8.15891
8.48733
8.76572
9.19347
5.18786
5.50516
5.82464
6.14848
6.48163
6.82822
7.19755
7.59196
7.99962
8.35251
8.62936
9.08023
5.1859
5.47889
5.77232
6.06942
6.37329
6.69063
7.02809
7.39428
7.78335
8.13208
8.44319
8.89552
5.18108
5.4472
5.71228
5.97892
6.25
6.53217
6.83146
7.15773
7.51263
7.86321
8.15799
8.63196
5.174
5.41253
5.64841
5.88304
6.11983
6.36304
6.61907
6.89625
7.20099
7.50803
7.79359
8.20948
5.16574
5.37704
5.58398
5.78718
5.98958
6.19344
6.40336
6.6226
6.85676
7.09908
7.29573
7.5894
3.30479
3.10576
3.26923
3.43362
3.61735
3.80805
4.0003
4.19288
4.38602
4.57954
4.77312
4.96597
4.35907
3.80576
3.73989
3.78884
3.88876
4.01737
4.16187
4.31629
4.4774
4.64297
4.8111
4.98029
4.76565
4.25412
4.09504
4.07124
4.11475
4.19715
4.30356
4.42593
4.55927
4.70011
4.84538
4.99239
4.94201
4.53277
4.35059
4.29137
4.29923
4.34879
4.426
4.5222
4.63211
4.75157
4.87628
5.00348
5.15689
5.34241
5.52169
5.69555
5.86529
6.03234
6.19707
6.35854
6.51127
6.6347
6.64897
6.27613
5.14838
5.30969
5.46345
5.61054
5.75108
5.88545
6.01141
6.12466
6.2146
6.26149
6.20067
5.88172
5.14085
5.2797
5.4105
5.5338
5.64935
5.75608
5.85114
5.9284
5.97698
5.97781
5.88994
5.58317
5.13523
5.25304
5.36329
5.46604
5.56039
5.64447
5.71534
5.76658
5.78856
5.76526
5.6627
5.38977
5.02972
4.71024
4.53754
4.46233
4.449
4.4762
4.53142
4.60675
4.6972
4.7985
4.90579
5.01333
5.07375
4.82605
4.67299
4.59625
4.57166
4.5839
4.62257
4.68117
4.7553
4.84152
4.93334
5.02207
5.10098
4.90595
4.77475
4.7009
4.67074
4.67283
4.69908
4.74414
4.80454
4.8776
4.95556
5.0259
5.11953
4.96363
4.85136
4.78334
4.75099
4.74629
4.76311
4.79701
4.84521
4.90521
4.96577
5.01862
5.13316
5.23094
5.32335
5.409
5.48568
5.55158
5.6036
5.63613
5.6404
5.60294
5.49841
5.26687
5.13556
5.21376
5.29086
5.36218
5.42413
5.47525
5.51265
5.53146
5.52391
5.47884
5.37675
5.18312
5.1413
5.20196
5.26498
5.32373
5.37324
5.4122
5.43823
5.44692
5.43169
5.38334
5.28804
5.12721
5.15433
5.20036
5.2469
5.29291
5.33115
5.35982
5.37683
5.37813
5.35817
5.30958
5.22299
5.08858
5.13298
5.00628
4.91062
4.84877
4.816
4.80672
4.81621
4.84079
4.87778
4.92347
4.96385
4.98811
5.1432
5.0388
4.95683
4.90118
4.86908
4.8568
4.86057
4.87743
4.90457
4.93777
4.9629
4.97924
5.15114
5.06395
4.9935
4.94351
4.91266
4.89828
4.89758
4.90805
4.92699
4.95043
4.96732
4.97746
5.15752
5.08394
5.02295
4.97812
4.94868
4.933
4.92879
4.93406
4.94626
4.96204
4.97292
4.97934
5.16262
5.09989
5.04693
5.00669
4.97882
4.96227
4.95517
4.95627
4.96284
4.9725
4.97875
4.98251
5.16679
5.11301
5.06679
5.03071
5.00416
4.98718
4.97774
4.97541
4.97742
4.98208
4.98425
4.98623
5.17011
5.1237
5.08338
5.05113
5.02565
5.00867
4.99693
4.99212
4.99002
4.99084
4.98955
4.99
5.17264
5.13237
5.09717
5.06798
5.04362
5.02658
5.01313
5.00622
5.00092
4.99874
4.99451
4.99371
5.17426
5.13857
5.10711
5.08125
5.05652
5.04066
5.02475
5.01738
5.00888
5.00539
4.99893
4.99712
5.17498
5.14187
5.11314
5.08766
5.06453
5.0474
5.0321
5.02282
5.01423
5.0092
5.00281
4.99992
5.17507
5.14316
5.11502
5.08969
5.06703
5.04937
5.03443
5.0244
5.01606
5.01053
5.00478
5.00175
5.17496
5.1434
5.11511
5.08964
5.06722
5.04926
5.03466
5.02432
5.01626
5.01049
5.00519
5.00241
5.18766
5.20854
5.23609
5.26879
5.29673
5.31678
5.32651
5.32232
5.29939
5.25212
5.17402
5.06137
5.19898
5.21337
5.22775
5.2492
5.2682
5.28095
5.28488
5.27662
5.25218
5.20701
5.13718
5.04088
5.2028
5.21161
5.21953
5.23275
5.24461
5.25134
5.2506
5.23922
5.21383
5.17107
5.10804
5.02557
5.20283
5.20805
5.21162
5.21859
5.22464
5.22645
5.22202
5.20828
5.18267
5.14219
5.08549
5.01306
5.20112
5.20392
5.20428
5.20631
5.20794
5.20564
5.19828
5.18254
5.15681
5.11847
5.06665
5.00336
5.19862
5.19981
5.19733
5.19559
5.19354
5.18796
5.17827
5.16093
5.13549
5.09877
5.05162
4.99487
5.19575
5.1956
5.19118
5.18609
5.18169
5.17289
5.16177
5.1425
5.11764
5.08193
5.03838
4.98819
5.19271
5.19145
5.18545
5.17798
5.17168
5.16042
5.14806
5.12733
5.10286
5.06794
5.02775
4.98243
5.1899
5.1873
5.18116
5.17136
5.16499
5.15065
5.1388
5.11533
5.09248
5.05666
5.01964
4.97803
5.18721
5.18413
5.17751
5.16848
5.16025
5.1467
5.13259
5.11026
5.08567
5.05155
5.01476
4.97577
5.18541
5.18225
5.17598
5.16765
5.15872
5.14575
5.13059
5.10887
5.08333
5.0499
5.0134
4.97449
5.18469
5.18174
5.17564
5.16775
5.1585
5.14594
5.13023
5.10891
5.08275
5.04988
5.01342
4.97401
)
;

boundaryField
{
    rotor
    {
        type            zeroGradient;
    }
    stator
    {
        type            zeroGradient;
    }
    front
    {
        type            empty;
    }
    back
    {
        type            empty;
    }
    procBoundary3to1
    {
        type            processor;
        value           nonuniform List<scalar> 
20
(
3.1038
4.17878
4.58843
4.76112
4.84293
4.88058
4.90142
4.91405
4.92156
4.92654
4.92928
4.93125
4.93191
4.93265
4.93276
4.93286
4.93324
4.93223
4.93165
4.93125
)
;
    }
    procBoundary3to2
    {
        type            processor;
        value           nonuniform List<scalar> 
20
(
6.3687
6.0109
5.73324
5.55565
5.44412
5.36951
5.32075
5.2886
5.26667
5.25133
5.24021
5.23198
5.2256
5.22055
5.21631
5.21273
5.20993
5.20825
5.20748
5.20716
)
;
    }
}


// ************************************************************************* //
