/*--------------------------------*- C++ -*----------------------------------*\
  =========                 |
  \\      /  F ield         | OpenFOAM: The Open Source CFD Toolbox
   \\    /   O peration     | Website:  https://openfoam.org
    \\  /    A nd           | Version:  6
     \\/     M anipulation  |
\*---------------------------------------------------------------------------*/
FoamFile
{
    version     2.0;
    format      ascii;
    class       surfaceScalarField;
    location    "1500";
    object      phi;
}
// * * * * * * * * * * * * * * * * * * * * * * * * * * * * * * * * * * * * * //

dimensions      [0 3 -1 0 0 0 0];

internalField   nonuniform List<scalar> 
1468
(
-3.33927e-06
3.30367e-06
-5.20191e-06
1.11859e-06
-5.75264e-06
6.87031e-07
-7.45634e-06
9.754e-07
-8.08664e-06
8.63726e-07
-9.31598e-06
5.75942e-07
-9.37881e-06
3.6992e-07
-1.01417e-05
1.82651e-07
-9.87988e-06
1.03804e-07
-1.04003e-05
2.03501e-08
-9.99571e-06
7.79255e-09
-3.62005e-08
-1.03658e-05
-3.607e-06
6.75935e-06
-4.55927e-06
1.9003e-06
-4.52529e-06
6.2261e-07
-3.99586e-06
3.51532e-07
-3.37854e-06
2.34947e-07
-3.00295e-06
1.19028e-07
-2.65842e-06
2.77709e-08
-2.50179e-06
-4.17296e-08
-2.30656e-06
-7.49194e-08
-2.24644e-06
-9.07681e-08
-2.12666e-06
-8.14677e-08
-6.93045e-08
-2.12587e-06
-9.12672e-07
7.57264e-06
-6.68702e-07
1.57822e-06
-2.67939e-07
2.08681e-07
1.50336e-07
-1.00519e-07
5.66645e-07
-1.88123e-07
8.88153e-07
-2.30292e-07
1.16153e-06
-2.48553e-07
1.34745e-06
-2.50328e-07
1.50579e-06
-2.3139e-07
1.5975e-06
-1.98826e-07
1.67611e-06
-1.52616e-07
-1.01382e-07
1.69989e-06
-4.03778e-07
7.68309e-06
5.87067e-07
5.04338e-07
1.18694e-06
-4.17342e-07
1.63054e-06
-5.67398e-07
2.01112e-06
-5.70875e-07
2.32204e-06
-5.58297e-07
2.58746e-06
-5.10295e-07
2.78679e-06
-4.64671e-07
2.94925e-06
-3.87183e-07
3.05448e-06
-3.1668e-07
3.1324e-06
-2.20295e-07
-1.38026e-07
3.16067e-06
9.86436e-08
7.24577e-06
1.15988e-06
-6.8635e-07
1.8724e-06
-1.21262e-06
2.409e-06
-1.10797e-06
2.80134e-06
-1.02578e-06
3.16897e-06
-9.01927e-07
3.42894e-06
-8.18904e-07
3.67616e-06
-6.80136e-07
3.82432e-06
-5.78358e-07
3.96884e-06
-4.24853e-07
4.02291e-06
-3.1369e-07
-1.54284e-07
4.08193e-06
2.94568e-08
6.01682e-06
1.52947e-06
-2.5107e-06
2.45712e-06
-2.23291e-06
3.03057e-06
-1.82232e-06
3.54717e-06
-1.53426e-06
3.89016e-06
-1.35163e-06
4.24009e-06
-1.13708e-06
4.44112e-06
-9.67412e-07
4.66299e-06
-7.53736e-07
4.75006e-06
-5.85467e-07
4.87158e-06
-3.74741e-07
-2.10214e-07
4.86735e-06
1.92162e-07
5.27607e-06
1.96802e-06
-4.57332e-06
3.05123e-06
-3.43997e-06
3.77284e-06
-2.63798e-06
4.2976e-06
-2.17774e-06
4.73069e-06
-1.82869e-06
5.04607e-06
-1.53215e-06
5.30645e-06
-1.24331e-06
5.47714e-06
-9.78572e-07
5.61616e-06
-7.16662e-07
5.68352e-06
-4.74658e-07
-2.29536e-07
5.72973e-06
5.10043e-08
4.06989e-06
2.42294e-06
-7.11827e-06
3.72887e-06
-4.9476e-06
4.58719e-06
-3.59038e-06
5.19006e-06
-2.85813e-06
5.63496e-06
-2.34346e-06
5.9633e-06
-1.91318e-06
6.20533e-06
-1.52696e-06
6.37511e-06
-1.17712e-06
6.49426e-06
-8.52843e-07
6.56509e-06
-5.5035e-07
-2.59705e-07
6.59804e-06
4.05143e-07
3.6853e-06
2.94636e-06
-9.84268e-06
4.58993e-06
-6.58975e-06
5.55667e-06
-4.64385e-06
6.20025e-06
-3.57147e-06
6.64174e-06
-2.84688e-06
6.95005e-06
-2.27114e-06
7.16375e-06
-1.78142e-06
7.31103e-06
-1.35297e-06
7.41013e-06
-9.67766e-07
7.46989e-06
-6.1596e-07
-2.8216e-07
7.49839e-06
1.08034e-06
2.44554e-06
3.93817e-06
-1.26438e-05
5.68533e-06
-8.46902e-06
6.72552e-06
-5.7067e-06
7.34744e-06
-4.23508e-06
7.74011e-06
-3.28087e-06
7.99489e-06
-2.56212e-06
8.16102e-06
-1.97999e-06
8.27254e-06
-1.48433e-06
8.34371e-06
-1.05245e-06
8.38842e-06
-6.6065e-07
-2.95332e-07
8.41066e-06
3.71179e-06
-8.48647e-07
5.82435e-06
-1.47358e-05
7.32357e-06
-9.85642e-06
8.15773e-06
-6.56699e-06
8.63247e-06
-4.74026e-06
8.90958e-06
-3.58782e-06
9.07438e-06
-2.76069e-06
9.17692e-06
-2.10998e-06
9.24031e-06
-1.57089e-06
9.28117e-06
-1.10499e-06
9.30628e-06
-6.88545e-07
-3.02379e-07
9.32222e-06
9.92995e-06
-1.07513e-05
9.54034e-06
-1.41823e-05
9.63749e-06
-9.99396e-06
9.86926e-06
-6.77396e-06
1.0023e-05
-4.88746e-06
1.01112e-05
-3.68521e-06
1.0161e-05
-2.82432e-06
1.01876e-05
-2.15207e-06
1.02008e-05
-1.59743e-06
1.02083e-05
-1.11853e-06
1.02136e-05
-6.91867e-07
1.02227e-05
-2.97224e-07
-9.89354e-06
-3.28025e-08
-1.01506e-05
-6.93326e-08
-9.63339e-06
-7.49096e-08
-9.80959e-06
-1.34138e-07
-9.25141e-06
-1.78423e-07
-9.25473e-06
-2.86394e-07
-8.59465e-06
-4.12825e-07
-8.05792e-06
-5.88689e-07
-7.29761e-06
-5.74983e-07
-6.38357e-06
-7.24798e-07
-3.71686e-06
-2.36994e-06
-3.6352e-06
-2.06813e-06
-4.70545e-08
-2.12174e-06
-3.23107e-08
-2.12881e-06
-1.78268e-08
-2.25518e-06
-2.12256e-08
-2.3587e-06
-3.80921e-08
-2.58203e-06
-8.08402e-08
-2.83212e-06
-1.44747e-07
-3.18014e-06
-2.39014e-07
-3.33473e-06
-3.81404e-07
-3.20944e-06
-7.81283e-07
-3.24644e-06
-2.18539e-06
-6.83539e-06
1.71326e-06
-4.63004e-08
1.6744e-06
5.64158e-09
1.62302e-06
5.43043e-08
1.51104e-06
9.1221e-08
1.37266e-06
1.18525e-07
1.1634e-06
1.27317e-07
9.07533e-07
1.19186e-07
5.86677e-07
8.42157e-08
2.41146e-07
-1.86293e-08
-1.12474e-07
-3.69832e-07
-3.35992e-07
-1.8743e-06
-7.12469e-06
3.16589e-06
-3.62634e-08
3.12548e-06
4.64111e-08
3.05841e-06
1.41317e-07
2.94218e-06
2.15747e-07
2.78527e-06
2.95122e-07
2.56984e-06
3.49665e-07
2.30557e-06
4.06158e-07
1.97485e-06
4.2364e-07
1.58596e-06
4.09381e-07
1.02629e-06
2.1911e-07
6.25959e-08
-8.36058e-07
-6.76889e-06
4.05666e-06
-4.08992e-08
4.03671e-06
1.15577e-07
3.93833e-06
2.28517e-07
3.83221e-06
3.78794e-07
3.63796e-06
4.87995e-07
3.42725e-06
6.31483e-07
3.1011e-06
7.24367e-07
2.74262e-06
8.48067e-07
2.23882e-06
9.33456e-07
1.48674e-06
1.03349e-06
2.40759e-07
9.12302e-07
-6.21164e-06
4.90177e-06
-3.57933e-09
4.82138e-06
1.6116e-07
4.77389e-06
3.67347e-07
4.60966e-06
5.38682e-07
4.45981e-06
7.51089e-07
4.17197e-06
9.27695e-07
3.86793e-06
1.1442e-06
3.41321e-06
1.33017e-06
2.86721e-06
1.59278e-06
2.14268e-06
2.039e-06
9.86299e-07
2.36672e-06
-3.96326e-06
5.71436e-06
2.69127e-09
5.68277e-06
2.47055e-07
5.59291e-06
4.87165e-07
5.47547e-06
7.49137e-07
5.27947e-06
1.01124e-06
5.02944e-06
1.30073e-06
4.65922e-06
1.58843e-06
4.207e-06
1.92893e-06
3.61759e-06
2.3466e-06
2.66945e-06
3.01783e-06
2.07794e-06
4.27e-06
-1.70386e-06
6.59516e-06
2.6224e-08
6.55892e-06
3.1511e-07
6.49128e-06
6.19535e-07
6.37268e-06
9.37643e-07
6.20258e-06
1.28543e-06
5.94182e-06
1.65346e-06
5.59348e-06
2.06662e-06
5.10225e-06
2.52548e-06
4.3962e-06
3.13284e-06
3.55366e-06
4.29202e-06
2.00624e-06
5.70826e-06
1.30837e-06
7.49807e-06
4.4204e-08
7.47605e-06
3.78329e-07
7.42099e-06
7.29336e-07
7.32955e-06
1.10663e-06
7.17707e-06
1.51965e-06
6.95133e-06
1.97658e-06
6.61374e-06
2.49734e-06
6.12901e-06
3.11607e-06
5.44589e-06
3.9506e-06
4.22467e-06
5.34698e-06
2.92519e-06
7.91215e-06
3.78098e-06
8.41649e-06
6.14095e-08
8.40836e-06
4.27594e-07
8.37518e-06
8.13369e-07
8.31385e-06
1.23575e-06
8.1979e-06
1.69853e-06
8.02147e-06
2.23085e-06
7.73943e-06
2.84823e-06
7.30689e-06
3.61167e-06
6.58954e-06
4.66774e-06
5.59349e-06
6.62882e-06
3.543e-06
9.36028e-06
7.48436e-06
9.33466e-06
7.29025e-08
9.34072e-06
4.58991e-07
9.33476e-06
8.68241e-07
9.30442e-06
1.31577e-06
9.24151e-06
1.81328e-06
9.12904e-06
2.38972e-06
8.94138e-06
3.07831e-06
8.62799e-06
3.96604e-06
8.11855e-06
5.22157e-06
7.1591e-06
7.31338e-06
5.51849e-06
1.11704e-05
1.26048e-05
1.02416e-05
8.10457e-08
1.02623e-05
4.71363e-07
1.02817e-05
8.90663e-07
1.02856e-05
1.34385e-06
1.02778e-05
1.85396e-06
1.02446e-05
2.43893e-06
1.01899e-05
3.15305e-06
1.00774e-05
4.06873e-06
9.84637e-06
5.38907e-06
9.5174e-06
7.64538e-06
8.54949e-06
1.17123e-05
2.09838e-05
1.74394e-05
-6.49285e-06
1.39702e-05
-1.06303e-05
1.22877e-05
-8.17825e-06
1.16473e-05
-6.10783e-06
1.14003e-05
-4.62726e-06
1.12845e-05
-3.57198e-06
1.12186e-05
-2.7676e-06
1.11725e-05
-2.12179e-06
1.11393e-05
-1.57754e-06
1.11155e-05
-1.10383e-06
1.11024e-05
-6.78453e-07
-2.89381e-07
1.11029e-05
1.91161e-05
-3.51629e-06
1.57052e-05
-7.09149e-06
1.39276e-05
-6.38575e-06
1.30602e-05
-5.1787e-06
1.26155e-05
-4.14801e-06
1.23707e-05
-3.30499e-06
1.22195e-05
-2.60896e-06
1.2118e-05
-2.02e-06
1.20464e-05
-1.50858e-06
1.19969e-05
-1.05504e-06
1.19658e-05
-6.44452e-07
-2.64082e-07
1.19586e-05
1.86446e-05
-2.05115e-06
1.64119e-05
-4.79438e-06
1.49894e-05
-4.85211e-06
1.41494e-05
-4.28993e-06
1.36562e-05
-3.61935e-06
1.33533e-05
-2.98004e-06
1.31546e-05
-2.4028e-06
1.30172e-05
-1.88274e-06
1.29182e-05
-1.41495e-06
1.28485e-05
-9.89679e-07
1.28043e-05
-5.96957e-07
-2.39979e-07
1.2782e-05
1.81752e-05
-1.31323e-06
1.68018e-05
-3.33939e-06
1.57307e-05
-3.74886e-06
1.502e-05
-3.5193e-06
1.45531e-05
-3.10113e-06
1.42406e-05
-2.63168e-06
1.40253e-05
-2.16217e-06
1.38693e-05
-1.71348e-06
1.37538e-05
-1.29208e-06
1.367e-05
-8.99974e-07
1.36095e-05
-5.35821e-07
1.35725e-05
-1.85089e-07
1.11275e-05
8.01533e-08
1.11641e-05
4.67421e-07
1.12033e-05
8.82457e-07
1.12419e-05
1.3301e-06
1.12811e-05
1.82807e-06
1.13304e-05
2.39426e-06
1.14064e-05
3.06832e-06
1.15471e-05
3.90814e-06
1.18476e-05
5.03917e-06
1.25762e-05
6.71444e-06
1.48605e-05
9.32422e-06
1.30304e-05
1.19898e-05
7.10538e-08
1.20394e-05
4.45448e-07
1.20954e-05
8.45185e-07
1.2161e-05
1.27639e-06
1.22375e-05
1.7445e-06
1.23466e-05
2.26999e-06
1.25137e-05
2.86768e-06
1.28013e-05
3.57272e-06
1.3318e-05
4.42688e-06
1.44007e-05
5.53427e-06
1.66721e-05
6.84355e-06
7.25956e-06
1.2826e-05
4.89133e-08
1.28858e-05
4.08241e-07
1.29563e-05
7.8993e-07
1.30393e-05
1.19622e-06
1.31428e-05
1.63053e-06
1.32852e-05
2.10341e-06
1.34987e-05
2.61841e-06
1.38362e-05
3.18416e-06
1.43916e-05
3.79359e-06
1.5356e-05
4.42675e-06
1.71562e-05
4.9568e-06
4.21447e-06
1.36347e-05
4.83705e-09
1.37055e-05
3.52279e-07
1.3788e-05
7.14265e-07
1.38832e-05
1.09035e-06
1.40024e-05
1.48845e-06
1.41604e-05
1.90504e-06
1.43887e-05
2.34101e-06
1.47247e-05
2.78155e-06
1.52314e-05
3.20239e-06
1.6024e-05
3.53729e-06
1.72901e-05
3.58026e-06
2.57247e-06
2.50116e-06
-8.72034e-07
1.61181e-06
-2.40414e-06
8.38466e-07
-2.89926e-06
2.65001e-07
-2.89553e-06
-1.39998e-07
-2.65211e-06
-4.2783e-07
-2.31169e-06
-6.36774e-07
-1.93207e-06
-7.9493e-07
-1.54541e-06
-9.17846e-07
-1.16472e-06
-1.01477e-06
-8.03723e-07
-1.08966e-06
-4.54273e-07
-1.22793e-07
-1.15732e-06
1.92057e-06
-6.07936e-07
1.34266e-06
-1.77668e-06
7.69493e-07
-2.29651e-06
3.14034e-07
-2.38591e-06
-3.31074e-08
-2.25677e-06
-2.92397e-07
-2.00918e-06
-4.89974e-07
-1.70259e-06
-6.45126e-07
-1.36688e-06
-7.74341e-07
-1.0207e-06
-8.88271e-07
-6.77643e-07
-1.00901e-06
-3.36815e-07
7.88015e-09
-1.11888e-06
1.51282e-06
-4.43683e-07
1.12094e-06
-1.3553e-06
6.99643e-07
-1.82514e-06
3.33748e-07
-1.97721e-06
4.03243e-08
-1.92208e-06
-1.89284e-07
-1.74419e-06
-3.7035e-07
-1.49554e-06
-5.17762e-07
-1.20187e-06
-6.48276e-07
-8.79569e-07
-7.86654e-07
-5.36261e-07
-9.79963e-07
-1.30869e-07
1.24919e-07
-1.10743e-06
1.21628e-06
-3.37117e-07
9.45663e-07
-1.0548e-06
6.26073e-07
-1.47996e-06
3.34135e-07
-1.64526e-06
8.83371e-08
-1.63337e-06
-1.11728e-07
-1.50505e-06
-2.72966e-07
-1.29995e-06
-4.06712e-07
-1.04189e-06
-5.27258e-07
-7.39542e-07
-6.61537e-07
-3.85458e-07
-8.93551e-07
9.8221e-08
-6.14726e-07
-1.13421e-07
-1.05615e-06
-7.7186e-08
-9.64023e-07
2.73366e-07
-8.68591e-07
6.20915e-07
-7.61967e-07
9.73052e-07
-6.33748e-07
1.33673e-06
-4.66989e-07
1.70355e-06
-2.37659e-07
2.06662e-06
8.39116e-08
2.40556e-06
5.33406e-07
2.68339e-06
1.16028e-06
2.82116e-06
2.02842e-06
2.64807e-06
1.66549e-06
-9.69705e-07
-2.14756e-07
-8.3633e-07
1.49664e-07
-7.24052e-07
5.03322e-07
-6.11367e-07
8.41941e-07
-4.83854e-07
1.17494e-06
-3.22333e-07
1.49821e-06
-1.08644e-07
1.79923e-06
1.7883e-07
2.05931e-06
5.57771e-07
2.23736e-06
1.04834e-06
2.26284e-06
1.64758e-06
1.99295e-06
1.13669e-06
-9.34892e-07
-3.65641e-07
-7.29115e-07
-5.09219e-08
-5.99155e-07
3.66969e-07
-4.86782e-07
7.12584e-07
-3.65377e-07
1.02595e-06
-2.16066e-07
1.31328e-06
-2.31547e-08
1.56458e-06
2.26678e-07
1.76248e-06
5.41522e-07
1.86987e-06
9.22951e-07
1.82732e-06
1.34374e-06
1.52931e-06
8.17567e-07
-8.28208e-07
-1.31547e-07
-5.97808e-07
-2.77387e-07
-4.77579e-07
2.37767e-07
-3.77968e-07
5.89192e-07
-2.68754e-07
8.83145e-07
-1.35413e-07
1.13673e-06
3.47568e-08
1.3487e-06
2.4867e-07
1.50088e-06
5.08538e-07
1.56431e-06
8.05961e-07
1.48753e-06
1.10933e-06
1.20165e-06
6.08265e-07
9.96588e-07
-2.65457e-07
8.0212e-07
-8.40351e-07
5.59308e-07
-1.20643e-06
3.24633e-07
-1.37679e-06
1.19248e-07
-1.3925e-06
-5.26417e-08
-1.30123e-06
-1.93354e-07
-1.13242e-06
-3.08277e-07
-9.07646e-07
-4.01255e-07
-6.3266e-07
-4.70884e-07
-3.09715e-07
-5.07559e-07
1.56682e-07
-6.18975e-07
8.30052e-07
-2.13117e-07
6.87599e-07
-6.78167e-07
4.98748e-07
-9.97078e-07
3.09929e-07
-1.15666e-06
1.38401e-07
-1.18831e-06
-7.8338e-09
-1.1207e-06
-1.2899e-07
-9.81387e-07
-2.24794e-07
-7.85854e-07
-2.94117e-07
-5.43743e-07
-3.19502e-07
-2.66462e-07
-2.16574e-07
6.06414e-08
-7.53568e-07
7.02075e-07
-1.75181e-07
5.94318e-07
-5.57498e-07
4.4676e-07
-8.28908e-07
2.93168e-07
-9.78802e-07
1.50553e-07
-1.01691e-06
2.61033e-08
-9.69803e-07
-7.7213e-08
-8.5444e-07
-1.56963e-07
-6.87488e-07
-2.09669e-07
-4.77782e-07
-2.23068e-07
-2.44674e-07
-1.41791e-07
4.89897e-09
-8.81929e-07
6.01865e-07
-1.43998e-07
5.19389e-07
-4.60183e-07
4.01576e-07
-6.96557e-07
2.76592e-07
-8.31678e-07
1.57236e-07
-8.73873e-07
5.17632e-08
-8.39471e-07
-3.6403e-08
-7.42011e-07
-1.02961e-07
-6.00551e-07
-1.44306e-07
-4.18766e-07
-1.49892e-07
-2.23383e-07
-9.15511e-08
-4.37815e-08
-8.8572e-07
5.2284e-07
-1.20147e-07
4.57788e-07
-3.86891e-07
3.63424e-07
-5.89493e-07
2.60547e-07
-7.14311e-07
1.60898e-07
-7.52328e-07
7.14666e-08
-7.30428e-07
-4.49955e-09
-6.48049e-07
-6.0025e-08
-5.28841e-07
-9.39876e-08
-3.74552e-07
-9.64157e-08
-2.11921e-07
-4.57058e-08
-7.25992e-08
-9.12778e-07
4.60337e-07
-9.85294e-08
4.08758e-07
-3.24142e-07
3.31367e-07
-5.04213e-07
2.47268e-07
-6.16577e-07
1.62457e-07
-6.51714e-07
8.6707e-08
-6.38883e-07
2.04238e-08
-5.64259e-07
-2.66626e-08
-4.67811e-07
-5.54809e-08
-3.31193e-07
-5.50864e-08
-1.99842e-07
-1.7981e-08
-9.84715e-08
-8.40469e-07
4.15655e-07
-7.9778e-08
3.72946e-07
-2.74125e-07
3.08734e-07
-4.32583e-07
2.38854e-07
-5.31453e-07
1.64878e-07
-5.64686e-07
1.00626e-07
-5.55291e-07
3.96974e-08
-4.93519e-07
3.45545e-10
-4.11496e-07
-2.71129e-08
-2.97657e-07
-2.48511e-08
-1.90762e-07
8.76626e-09
-1.13353e-07
-8.08103e-07
3.97232e-07
-6.10523e-08
3.59805e-07
-2.27434e-07
3.04044e-07
-3.63397e-07
2.42385e-07
-4.59526e-07
1.74734e-07
-4.78919e-07
1.16449e-07
-4.86093e-07
5.77095e-08
-4.17382e-07
2.20227e-08
-3.64768e-07
-5.91481e-09
-2.54618e-07
-1.76148e-09
-1.82329e-07
2.68337e-08
-1.2654e-07
-7.27445e-07
4.28555e-07
-4.42208e-08
3.9168e-07
-1.8349e-07
3.34423e-07
-3.09395e-07
2.77322e-07
-3.63606e-07
2.02053e-07
-4.13857e-07
1.48614e-07
-3.80146e-07
7.77727e-08
-3.70356e-07
4.73233e-08
-2.84433e-07
9.04852e-09
-2.39485e-07
1.78916e-08
-1.55642e-07
4.27685e-08
-1.59715e-07
-6.37953e-07
5.55288e-07
-2.04133e-08
5.08262e-07
-1.37194e-07
4.44233e-07
-2.17293e-07
3.70548e-07
-2.54529e-07
2.83863e-07
-2.86563e-07
2.09886e-07
-2.55622e-07
1.26356e-07
-2.61048e-07
7.99801e-08
-1.91851e-07
3.48053e-08
-1.7791e-07
3.75343e-08
-1.18389e-07
6.73746e-08
-1.62455e-07
-5.25832e-07
7.94232e-07
3.6963e-08
7.2632e-07
-4.41726e-08
6.43592e-07
-5.45142e-08
5.49592e-07
-3.08243e-08
4.36929e-07
-3.58264e-08
3.36302e-07
1.91218e-08
2.23484e-07
-3.98479e-08
1.57971e-07
2.74012e-08
9.64834e-08
-3.29146e-08
9.44332e-08
1.91844e-08
1.09989e-07
-9.85265e-08
-3.20295e-07
3.29905e-07
3.02923e-07
2.77856e-07
2.77217e-07
2.82645e-07
3.25349e-07
3.22382e-07
3.67829e-07
3.66693e-07
4.02903e-07
3.20295e-07
-4.18804e-07
3.29195e-07
-4.00957e-07
-2.94651e-07
-3.53675e-07
1.80972e-07
-2.81794e-07
4.99153e-07
-1.89741e-07
7.64948e-07
-7.2909e-08
9.88569e-07
7.48482e-08
1.16545e-06
2.57258e-07
1.28255e-06
4.70936e-07
1.31222e-06
7.05426e-07
1.22006e-06
9.26006e-07
9.52437e-07
4.75432e-07
-1.3686e-07
4.9447e-07
-2.57341e-07
-1.72545e-07
-2.5048e-07
1.6263e-07
-2.00883e-07
4.27794e-07
-1.25202e-07
6.57594e-07
-2.48552e-08
8.51619e-07
1.02595e-07
1.00099e-06
2.56978e-07
1.09294e-06
4.33781e-07
1.1068e-06
6.19214e-07
1.01066e-06
7.86553e-07
7.78004e-07
3.75073e-07
-9.02459e-08
6.21618e-07
-1.71307e-07
-9.23368e-08
-1.72073e-07
1.55894e-07
-1.36393e-07
3.76038e-07
-7.35067e-08
5.73295e-07
1.24886e-08
7.40142e-07
1.22078e-07
8.63298e-07
2.5339e-07
9.35499e-07
3.99372e-07
9.33139e-07
5.49006e-07
8.42037e-07
6.74773e-07
6.325e-07
3.12061e-07
-4.98588e-08
6.81729e-07
-1.09559e-07
-3.28341e-08
-1.12433e-07
1.48283e-07
-8.55452e-08
3.29746e-07
-3.25613e-08
4.94041e-07
4.07218e-08
6.37227e-07
1.35532e-07
7.40894e-07
2.46602e-07
8.00409e-07
3.69149e-07
7.9512e-07
4.89568e-07
7.10143e-07
5.89708e-07
5.35345e-07
2.54575e-07
-1.72215e-08
7.29525e-07
-6.49953e-08
1.32444e-08
-6.73675e-08
1.47486e-07
-4.66701e-08
2.94614e-07
-2.71885e-10
4.33039e-07
6.24732e-08
5.5408e-07
1.45247e-07
6.37897e-07
2.3999e-07
6.87975e-07
3.42715e-07
6.73158e-07
4.42246e-07
6.03085e-07
5.18843e-07
4.4474e-07
2.22563e-07
4.79904e-09
7.06942e-07
-3.18897e-08
4.89209e-08
-3.38545e-08
1.37625e-07
-1.66971e-08
2.63594e-07
2.47913e-08
3.69061e-07
7.86487e-08
4.8024e-07
1.5267e-07
5.43686e-07
2.32673e-07
5.94817e-07
3.22151e-07
5.76717e-07
4.02681e-07
5.20843e-07
4.65975e-07
3.90115e-07
1.84416e-07
2.3999e-08
7.06607e-07
-9.96792e-09
7.80821e-08
-7.90793e-09
1.37433e-07
4.14796e-09
2.34968e-07
4.64131e-08
3.22866e-07
9.08618e-08
4.14139e-07
1.6189e-07
4.68366e-07
2.28583e-07
5.09988e-07
3.0997e-07
4.94696e-07
3.76441e-07
4.48312e-07
4.25396e-07
3.30073e-07
1.63399e-07
3.90164e-08
6.28953e-07
5.90877e-09
1.08693e-07
1.10972e-08
1.19158e-07
2.11091e-08
2.15528e-07
6.56219e-08
2.58544e-07
1.05265e-07
3.64666e-07
1.76465e-07
3.80454e-07
2.35905e-07
4.49304e-07
3.14233e-07
4.11e-07
3.70758e-07
3.9774e-07
4.13047e-07
2.8454e-07
1.43015e-07
6.16816e-08
6.36414e-07
1.44727e-08
1.20967e-07
3.32186e-08
1.45417e-07
3.34401e-08
1.51964e-07
9.72833e-08
2.52465e-07
1.25378e-07
2.57763e-07
2.18169e-07
3.51934e-07
2.66435e-07
3.27107e-07
3.62227e-07
3.72902e-07
4.0908e-07
2.98693e-07
4.53328e-07
2.47989e-07
1.1442e-07
7.34746e-08
5.32053e-07
3.71374e-08
1.48997e-07
5.70394e-08
1.26883e-07
7.15213e-08
1.01969e-07
1.42403e-07
1.79306e-07
1.92875e-07
1.62682e-07
2.99485e-07
2.49996e-07
3.7485e-07
2.18983e-07
4.86531e-07
2.75151e-07
5.53629e-07
2.17671e-07
5.99154e-07
1.68364e-07
1.19158e-07
1.16086e-07
3.62616e-07
1.01953e-07
1.25541e-07
1.36151e-07
8.03125e-08
1.62519e-07
-3.53044e-08
2.56558e-07
5.43868e-08
3.31597e-07
-4.52896e-08
4.78784e-07
9.8174e-08
5.92844e-07
1.3764e-08
7.55017e-07
1.55436e-07
8.51989e-07
5.58806e-08
9.19883e-07
4.21864e-08
1.38087e-07
3.49282e-07
4.74419e-07
5.26954e-07
4.87282e-07
5.08204e-07
4.64199e-07
5.38846e-07
5.638e-07
7.05205e-07
7.45304e-07
8.04651e-07
)
;

boundaryField
{
    rotor
    {
        type            calculated;
        value           uniform 0;
    }
    stator
    {
        type            calculated;
        value           uniform 0;
    }
    front
    {
        type            empty;
        value           nonuniform 0();
    }
    back
    {
        type            empty;
        value           nonuniform 0();
    }
    procBoundary3to1
    {
        type            processor;
        value           nonuniform List<scalar> 
20
(
2.27637e-05
2.24704e-05
2.01718e-05
1.89265e-05
2.923e-06
2.16615e-06
1.65961e-06
1.30902e-06
1.06167e-06
8.78663e-07
7.43842e-07
6.38161e-07
5.58819e-07
4.94094e-07
4.50617e-07
4.34354e-07
4.72448e-07
6.32535e-07
9.76223e-07
9.60386e-07
)
;
    }
    procBoundary3to2
    {
        type            processor;
        value           nonuniform List<scalar> 
20
(
-2.1527e-05
-2.20682e-05
-2.00351e-05
-1.88709e-05
-2.89529e-06
-2.14971e-06
-1.6459e-06
-1.29613e-06
-1.04582e-06
-8.61563e-07
-7.22885e-07
-6.16205e-07
-5.32953e-07
-4.68097e-07
-4.21917e-07
-4.03292e-07
-4.35683e-07
-5.65715e-07
-8.12078e-07
-2.74079e-07
)
;
    }
}


// ************************************************************************* //
