/*--------------------------------*- C++ -*----------------------------------*\
  =========                 |
  \\      /  F ield         | OpenFOAM: The Open Source CFD Toolbox
   \\    /   O peration     | Website:  https://openfoam.org
    \\  /    A nd           | Version:  6
     \\/     M anipulation  |
\*---------------------------------------------------------------------------*/
FoamFile
{
    version     2.0;
    format      ascii;
    class       volScalarField;
    location    "1500";
    object      epsilon;
}
// * * * * * * * * * * * * * * * * * * * * * * * * * * * * * * * * * * * * * //

dimensions      [0 2 -3 0 0 0 0];

internalField   nonuniform List<scalar> 
768
(
264.203
193.812
202.759
207.54
206.102
208.559
205.914
208.101
205.407
209.857
215.709
216.773
260.181
105.922
80.6529
69.1002
63.6171
61.241
59.9347
59.3582
58.8984
58.8913
59.0329
59.0454
231.781
88.588
50.7864
35.6523
30.0107
28.0057
27.3009
27.0669
26.9767
26.9521
26.9624
26.9851
205.41
81.6915
43.176
28.423
23.3061
21.6225
21.0968
20.9377
20.8887
20.8796
20.8821
20.8883
195.23
78.0327
40.1119
26.2318
21.6386
20.2016
19.7766
19.6576
19.624
19.6164
19.6146
19.6168
184.829
74.4128
38.0314
25.1301
21.0278
19.7933
19.4456
19.3488
19.3248
19.3151
19.3153
19.3151
177.387
71.5325
36.3913
24.3552
20.6742
19.6125
19.3181
19.2439
19.22
19.2176
19.2158
19.2209
171.515
69.3257
35.0997
23.7607
20.4224
19.4909
19.2425
19.1775
19.1606
19.1571
19.1573
19.1598
167.467
67.767
34.1876
23.3193
20.2304
19.3951
19.1787
19.1238
19.1132
19.1068
19.1024
19.1039
156.725
66.8426
33.614
23.0152
20.087
19.318
19.123
19.0834
19.08
19.065
19.0608
19.06
151.646
68.5675
33.1967
22.7154
19.9472
19.2486
19.0731
19.0419
19.0424
19.0265
19.0209
19.0235
179.757
68.5677
31.2423
22.0307
19.7303
19.1628
19.0196
18.9963
19.0017
18.9935
18.9885
18.9866
215.068
215.964
214.511
215.46
216.681
223.088
222.495
220.899
213.398
200.884
182.771
261.273
58.9455
59.0051
58.9623
59.0669
59.1688
59.477
59.5848
60.6249
65.6287
80.0887
116.84
259.549
26.9942
27.0099
27.0155
27.0237
27.0239
27.0488
27.2165
28.3541
33.2264
48.1863
87.8781
232.305
20.892
20.8973
20.9007
20.9058
20.9073
20.9206
21.0414
21.9222
25.9069
39.2813
77.0161
212.933
19.6163
19.6162
19.6157
19.6182
19.6207
19.6302
19.7203
20.4
23.7296
35.6651
71.026
200.407
19.3197
19.3169
19.3146
19.3124
19.3155
19.3206
19.3892
19.9213
22.6986
33.3287
66.1884
184.129
19.2208
19.2207
19.2162
19.2161
19.2134
19.2172
19.2667
19.6863
22.0222
31.4672
61.9344
176.164
19.1619
19.1584
19.1546
19.1555
19.1592
19.1593
19.2009
19.5359
21.501
30.0245
59.4231
172.404
19.1095
19.1101
19.1056
19.1088
19.1123
19.1162
19.1504
19.4144
21.0914
28.7039
56.3803
170.228
19.0612
19.0623
19.0583
19.0627
19.0679
19.073
19.1035
19.3205
20.7242
27.5564
54.0957
167.191
19.0131
19.0103
19.0173
19.0133
19.0143
19.026
19.0593
19.2389
20.4017
26.349
51.407
165.674
18.9738
18.9692
18.9691
18.9646
18.97
18.9842
19.0159
19.1523
20.0267
24.9213
49.4224
171.675
65.5273
39.1324
25.4269
20.7461
19.4137
19.0614
18.9664
18.9515
18.959
18.9475
18.9467
18.9407
34.2512
26.4668
21.707
19.7665
19.1489
18.9713
18.9214
18.9179
18.9267
18.9098
18.9068
18.9057
23.6982
21.5557
19.9589
19.2316
18.9826
18.9107
18.8879
18.8827
18.8911
18.8769
18.8727
18.8875
20.345
19.7569
19.2316
18.9748
18.8879
18.8642
18.8589
18.8605
18.8627
18.8538
18.8545
18.9073
18.9371
18.9458
18.9461
18.9429
18.9431
18.9451
18.97
19.06
19.5586
22.3126
35.4766
88.8603
18.8958
18.8997
18.9114
18.91
18.9073
18.9141
18.9286
18.9817
19.2116
20.3892
25.3274
40.1202
18.8734
18.8676
18.8751
18.8811
18.8774
18.8829
18.9095
18.9308
19.0183
19.4447
21.0637
24.8969
18.9049
18.8545
18.8426
18.8468
18.8484
18.853
18.8749
18.8792
18.9103
19.0575
19.5507
20.5882
19.2929
19.0984
18.933
18.8493
18.8176
18.8079
18.8048
18.8047
18.8055
18.8118
18.9037
19.2795
18.9477
18.8704
18.8136
18.7857
18.7746
18.7697
18.7683
18.7689
18.7745
18.84
19.4056
21.1571
18.8229
18.7802
18.7574
18.7471
18.7434
18.7407
18.7399
18.7411
18.7652
19.0698
21.1674
27.2058
18.7671
18.735
18.7236
18.7187
18.7172
18.7157
18.7153
18.7196
18.7945
19.6224
25.0834
44.8782
19.3379
18.9733
18.8334
18.8045
18.8015
18.8048
18.8138
18.8184
18.8326
18.8863
19.0466
19.3327
21.3136
19.5717
18.9273
18.7928
18.7717
18.7716
18.7754
18.7783
18.7841
18.804
18.8533
18.935
27.6423
21.3576
19.2304
18.8144
18.7507
18.7439
18.7454
18.747
18.7491
18.7558
18.7714
18.7982
46.5489
25.1331
19.7942
18.8685
18.7365
18.7209
18.7208
18.7216
18.722
18.7241
18.7282
18.7398
18.7349
18.7055
18.6982
18.6956
18.6951
18.6944
18.6942
18.7027
18.8417
20.2945
31.4351
114.718
18.7099
18.6825
18.6763
18.6748
18.6749
18.6748
18.6746
18.685
18.8475
20.4948
32.4539
97.8885
18.6899
18.6629
18.6574
18.6565
18.6569
18.6571
18.6571
18.6672
18.8242
20.4306
32.0552
94.0737
18.6714
18.6456
18.641
18.6406
18.6408
18.6406
18.6406
18.6493
18.7897
20.2728
31.2919
91.9577
18.6555
18.6295
18.6258
18.6255
18.6259
18.6256
18.6257
18.633
18.7546
20.0984
30.4843
89.8254
18.6601
18.6407
18.6382
18.6383
18.6386
18.638
18.6381
18.6438
18.7483
19.9612
29.7453
88.0269
18.8374
18.8343
18.8342
18.8356
18.8356
18.8356
18.8353
18.8399
18.9302
20.0332
29.2448
86.2924
19.9203
19.9808
19.9906
19.9957
19.9956
19.9966
19.9946
19.9973
20.0767
21.0932
29.6821
84.7169
23.777
23.8837
23.8971
23.9188
23.9108
23.9205
23.9087
23.9123
23.975
24.8957
32.4804
82.7112
32.9995
33.0264
33.0408
33.0581
33.0393
33.0513
33.0136
33.0156
33.0414
33.6742
38.9388
77.8124
53.4477
53.5064
53.4627
53.4851
53.358
53.4085
53.246
53.2601
53.1948
53.3932
54.6987
65.9415
122.104
121.959
121.731
121.43
121.093
120.752
120.404
120.044
119.843
119.742
117.954
104.468
114.565
30.9688
20.4401
18.9249
18.7229
18.6994
18.6977
18.6983
18.698
18.6983
18.6995
18.7067
98.6461
32.0744
20.6401
18.9341
18.7063
18.68
18.6776
18.6781
18.6774
18.6775
18.6771
18.6826
94.5938
31.7682
20.5805
18.9077
18.6867
18.6613
18.6592
18.6595
18.6593
18.6583
18.6577
18.6623
92.005
31.0905
20.4241
18.8669
18.6666
18.6444
18.6426
18.6426
18.6421
18.6414
18.6402
18.6447
90.016
30.3546
20.2478
18.8236
18.6471
18.6283
18.6271
18.6264
18.6264
18.6245
18.6242
18.6287
88.1591
29.6613
20.1044
18.8091
18.6549
18.6395
18.6379
18.6378
18.6371
18.6366
18.6356
18.64
86.4691
29.1752
20.1628
18.9823
18.8466
18.8337
18.8318
18.832
18.831
18.831
18.8304
18.8324
84.8827
29.5643
21.1928
20.1143
19.9914
19.9791
19.9752
19.9757
19.9738
19.9756
19.9758
19.9755
83.0381
32.3468
24.946
23.9877
23.8706
23.8619
23.8489
23.8537
23.8456
23.8558
23.8564
23.8486
78.2363
38.9207
33.6754
33.0083
32.9115
32.9054
32.8887
32.8914
32.8946
32.9158
32.9053
32.9071
66.3394
54.6435
53.2734
53.1094
53.0197
53.058
53.0277
53.0639
53.0918
53.1675
53.1166
53.1441
105.012
118.164
119.776
119.887
119.961
120.09
120.284
120.446
120.988
121.086
120.884
121.009
)
;

boundaryField
{
    rotor
    {
        Cmu             0.09;
        kappa           0.41;
        E               9.8;
        type            epsilonWallFunction;
        value           nonuniform List<scalar> 
48
(
264.203
193.812
202.759
207.54
206.102
208.559
205.914
208.101
205.407
209.857
215.709
216.773
215.068
215.964
214.511
215.46
216.681
223.088
222.495
220.899
213.398
200.884
182.771
261.273
264.203
260.181
231.781
205.41
195.23
184.829
177.387
171.515
167.467
156.725
151.646
179.757
261.273
259.549
232.305
212.933
200.407
184.129
176.164
172.404
170.228
167.191
165.674
171.675
)
;
    }
    stator
    {
        Cmu             0.09;
        kappa           0.41;
        E               9.8;
        type            epsilonWallFunction;
        value           nonuniform List<scalar> 
48
(
122.104
121.959
121.731
121.43
121.093
120.752
120.404
120.044
119.843
119.742
117.954
104.468
105.012
118.164
119.776
119.887
119.961
120.09
120.284
120.446
120.988
121.086
120.884
121.009
114.565
98.6461
94.5938
92.005
90.016
88.1591
86.4691
84.8827
83.0381
78.2363
66.3394
105.012
114.718
97.8885
94.0737
91.9577
89.8254
88.0269
86.2924
84.7169
82.7112
77.8124
65.9415
104.468
)
;
    }
    front
    {
        type            empty;
    }
    back
    {
        type            empty;
    }
    procBoundary1to0
    {
        type            processor;
        value           nonuniform List<scalar> 
20
(
65.5164
34.3746
23.7491
20.3588
19.296
18.9476
18.8215
18.766
18.7328
18.7082
18.6877
18.6694
18.6531
18.6589
18.836
19.9201
23.784
32.9984
53.4307
121.982
)
;
    }
    procBoundary1to3
    {
        type            processor;
        value           nonuniform List<scalar> 
20
(
88.8645
39.9377
24.8418
20.5742
19.331
18.9372
18.8004
18.7428
18.7088
18.685
18.6642
18.6471
18.6303
18.6422
18.8341
19.9763
23.8468
32.9003
53.1491
120.993
)
;
    }
}


// ************************************************************************* //
