/*--------------------------------*- C++ -*----------------------------------*\
  =========                 |
  \\      /  F ield         | OpenFOAM: The Open Source CFD Toolbox
   \\    /   O peration     | Website:  https://openfoam.org
    \\  /    A nd           | Version:  6
     \\/     M anipulation  |
\*---------------------------------------------------------------------------*/
FoamFile
{
    version     2.0;
    format      ascii;
    class       volScalarField;
    location    "1500";
    object      nut;
}
// * * * * * * * * * * * * * * * * * * * * * * * * * * * * * * * * * * * * * //

dimensions      [0 2 -1 0 0 0 0];

internalField   nonuniform List<scalar> 
768
(
5.72468e-05
0.000147486
0.000164714
0.000180086
0.00018092
0.000186532
0.000184433
0.000186156
0.000176278
0.000175875
0.000179843
0.000186996
7.88354e-05
0.000507692
0.000908676
0.00116002
0.00129174
0.00135775
0.0013909
0.00140855
0.0014161
0.00141804
0.00141562
0.00141863
8.63888e-05
0.000676984
0.00156543
0.00238166
0.00288065
0.00310515
0.00319085
0.00322069
0.00323111
0.0032344
0.00323293
0.00323044
9.48177e-05
0.000757115
0.00187409
0.003013
0.00373095
0.0040409
0.00414743
0.00418097
0.00419105
0.00419321
0.0041922
0.00419063
0.0001052
0.00081328
0.00203695
0.00327389
0.00402154
0.00432499
0.00442268
0.00445087
0.00445826
0.00445984
0.00445991
0.00445968
0.000115503
0.000874295
0.00216715
0.00342357
0.00413731
0.00440874
0.00449147
0.00451383
0.00451956
0.00452121
0.0045217
0.004521
0.000129302
0.000941687
0.00228777
0.0035408
0.00420583
0.00444403
0.00451315
0.00453126
0.00453576
0.00453636
0.00453509
0.00453345
0.000133742
0.00100335
0.00240023
0.00363821
0.00425623
0.00446557
0.00452362
0.00453806
0.00454079
0.00454059
0.00454027
0.00453855
0.000149163
0.00106095
0.00249664
0.00371819
0.00429537
0.00448194
0.00453091
0.00454207
0.00454405
0.00454473
0.00454473
0.00454378
0.000154646
0.0010808
0.00256626
0.00377769
0.00432486
0.00449369
0.0045359
0.00454264
0.00454312
0.00454569
0.0045457
0.00454527
0.000171889
0.0010648
0.0026217
0.00383608
0.00435372
0.00450413
0.00453918
0.0045435
0.00454307
0.00454484
0.00454538
0.00454508
0.000253984
0.0011794
0.00281195
0.00395845
0.00439662
0.00451584
0.00454182
0.00454471
0.00454236
0.00454278
0.00454377
0.00454507
0.000182878
0.000182478
0.000172903
0.000168507
0.000174517
0.000177401
0.000170414
0.000166211
0.000161583
0.0001511
0.000129733
5.28597e-05
0.00141891
0.00141827
0.00141661
0.00141539
0.00141584
0.00141339
0.0014106
0.00138044
0.0012442
0.000921142
0.000421285
7.11817e-05
0.00322846
0.00322644
0.00322503
0.00322435
0.00322485
0.00322315
0.00320329
0.00307
0.00259448
0.00169872
0.000714245
8.7326e-05
0.00418947
0.0041883
0.00418724
0.00418651
0.00418631
0.00418405
0.00415993
0.00398898
0.00335326
0.00212745
0.000861916
9.96068e-05
0.00445977
0.00445976
0.00445934
0.00445879
0.00445839
0.0044564
0.00443626
0.00428606
0.00366625
0.0023614
0.000957945
0.000109133
0.00452003
0.00452015
0.00452042
0.00452023
0.00452008
0.00451885
0.00450337
0.00438178
0.00383127
0.00254091
0.00105457
0.000117325
0.00453281
0.00453344
0.00453366
0.00453381
0.00453363
0.00453319
0.00452204
0.00442659
0.00394927
0.00270779
0.00115055
0.00012852
0.00453752
0.00453816
0.0045383
0.00453749
0.00453721
0.0045381
0.00453044
0.00445551
0.00404569
0.00285956
0.00124142
0.000139832
0.00454167
0.00454088
0.00454168
0.00454023
0.00453953
0.00454069
0.00453475
0.00447741
0.00412897
0.00301377
0.00134147
0.000157452
0.0045433
0.00454184
0.00454295
0.00454211
0.00454185
0.0045432
0.00453949
0.00449578
0.0042043
0.00316741
0.0014554
0.000172426
0.0045464
0.00454605
0.00454509
0.00454579
0.00454615
0.0045463
0.00454293
0.00450951
0.00427421
0.00334013
0.00160983
0.000198954
0.00454712
0.00454751
0.00454825
0.00454915
0.0045495
0.0045492
0.00454585
0.00452327
0.00435144
0.00356998
0.00188529
0.000248269
0.00129141
0.00231139
0.00348317
0.00419876
0.00445871
0.00453055
0.00454663
0.0045472
0.00454463
0.00454628
0.00454778
0.00454814
0.00268598
0.00339177
0.00404266
0.00438791
0.00450882
0.00454188
0.00454881
0.00454769
0.00454535
0.00454852
0.00455041
0.00454949
0.00377879
0.00408407
0.00435352
0.00449005
0.00453748
0.00454813
0.00454981
0.00455001
0.00454861
0.00455195
0.00455224
0.0045485
0.00430091
0.00439465
0.0044874
0.00453448
0.00454838
0.00455156
0.00454987
0.00454928
0.00455078
0.00455069
0.00454966
0.00453716
0.00454842
0.0045467
0.00454742
0.00454924
0.00454997
0.00455162
0.00454904
0.00453637
0.00444574
0.003973
0.00266646
0.000885033
0.0045515
0.00455077
0.00454822
0.00455125
0.00455292
0.00455208
0.00455146
0.00454528
0.00450708
0.00429683
0.00358455
0.00235084
0.00455205
0.00455283
0.00455182
0.00455252
0.00455387
0.00455304
0.00455035
0.00454921
0.00453688
0.00446204
0.00418231
0.00361769
0.00453583
0.0045484
0.00455217
0.00455295
0.00455336
0.00455266
0.00455007
0.00455131
0.00454904
0.00452652
0.00443791
0.00425141
0.00448135
0.00450975
0.00453697
0.00455074
0.00455508
0.0045558
0.00455507
0.0045549
0.00455514
0.00455262
0.00452733
0.00442933
0.00453663
0.00454498
0.00455277
0.00455646
0.00455765
0.0045579
0.00455757
0.00455729
0.00455596
0.00453803
0.00439113
0.00398572
0.00455273
0.00455559
0.00455786
0.00455889
0.00455916
0.00455931
0.00455926
0.00455893
0.0045526
0.004472
0.00397918
0.00296644
0.00455762
0.00455912
0.00455979
0.00456035
0.00456038
0.00456046
0.00456051
0.00455941
0.00453949
0.00432701
0.00326599
0.0015399
0.00441431
0.004508
0.00454593
0.00455457
0.0045561
0.00455649
0.00455592
0.00455628
0.00455556
0.00454835
0.00452098
0.00446908
0.00395073
0.00434673
0.00451381
0.00455091
0.00455722
0.00455834
0.00455822
0.00455846
0.00455824
0.00455606
0.00454837
0.0045348
0.00290745
0.00392884
0.00442705
0.00453892
0.00455689
0.00455945
0.00455955
0.00455977
0.00455975
0.00455901
0.00455698
0.00455334
0.00146218
0.00323785
0.00427673
0.00451839
0.00455536
0.00456017
0.00456057
0.00456078
0.00456079
0.00456046
0.00455995
0.00455881
0.00455958
0.00456083
0.00456114
0.00456142
0.00456139
0.00456141
0.00456151
0.00455927
0.00452206
0.00416068
0.00248008
0.000333655
0.00456078
0.00456204
0.0045624
0.00456251
0.00456243
0.00456233
0.00456241
0.00455964
0.00451574
0.004106
0.00233282
0.000275251
0.00456178
0.004563
0.00456334
0.00456342
0.00456331
0.0045632
0.00456325
0.00456054
0.00451773
0.00411393
0.00234844
0.000274554
0.00456264
0.0045639
0.0045641
0.00456413
0.00456405
0.004564
0.00456404
0.00456169
0.00452316
0.00414564
0.00241371
0.000284857
0.00456345
0.00456466
0.00456482
0.00456481
0.00456472
0.00456473
0.00456473
0.0045628
0.0045292
0.00418295
0.00249215
0.000296436
0.00455842
0.00455825
0.00455811
0.00455804
0.00455797
0.00455804
0.00455804
0.00455649
0.00452762
0.00421252
0.00256909
0.00030908
0.00450644
0.00450171
0.00450072
0.00450047
0.0045004
0.00450049
0.0045005
0.00449933
0.00447475
0.00419161
0.00262212
0.000321719
0.00422527
0.0042052
0.00420163
0.00420062
0.00420047
0.00420042
0.00420068
0.00420013
0.00418076
0.00394556
0.00256573
0.000331794
0.00342461
0.0033996
0.0033944
0.00339225
0.00339194
0.00339167
0.00339238
0.00339269
0.00338092
0.00322628
0.00225191
0.000332466
0.00220663
0.00219223
0.00218817
0.00218671
0.00218681
0.00218629
0.00218841
0.00218859
0.00218519
0.0021213
0.00164636
0.000313284
0.000927911
0.000916249
0.000914365
0.00091282
0.000914005
0.000912494
0.000914855
0.000914325
0.000914872
0.000901114
0.000775544
0.000265822
9.54305e-05
9.49976e-05
9.47271e-05
9.43938e-05
9.40623e-05
9.37023e-05
9.33905e-05
9.31239e-05
9.28919e-05
9.22797e-05
8.68302e-05
6.20333e-05
0.000328492
0.0025033
0.00411479
0.00449752
0.00455395
0.00456088
0.0045616
0.00456177
0.0045618
0.00456153
0.00456139
0.00456083
0.000276379
0.00234713
0.00405836
0.0044898
0.00455395
0.00456174
0.00456261
0.00456267
0.00456265
0.00456234
0.00456228
0.00456199
0.000276846
0.00235356
0.00406441
0.00449229
0.00455509
0.00456264
0.00456345
0.00456344
0.00456336
0.00456317
0.00456321
0.00456299
0.00028719
0.00241049
0.00409556
0.00449945
0.00455684
0.00456349
0.00456419
0.00456422
0.00456414
0.00456409
0.00456409
0.00456383
0.000298646
0.00248205
0.0041335
0.00450775
0.00455865
0.00456425
0.00456484
0.00456494
0.00456488
0.00456485
0.00456485
0.00456457
0.00031068
0.00255463
0.00416504
0.00450864
0.0045532
0.00455785
0.00455835
0.00455849
0.00455842
0.00455836
0.0045583
0.00455805
0.00032348
0.00260676
0.00414836
0.00445858
0.00449712
0.00450106
0.00450152
0.00450165
0.00450161
0.00450154
0.00450142
0.00450159
0.000334121
0.00255653
0.00391257
0.00416974
0.00420103
0.00420454
0.00420527
0.00420547
0.0042055
0.00420528
0.00420487
0.00420553
0.000334411
0.00224754
0.0032079
0.00337741
0.00339819
0.00340121
0.0034023
0.00340276
0.00340284
0.00340235
0.0034013
0.00340309
0.000315355
0.00164047
0.00211376
0.00218677
0.00219669
0.00219848
0.00219953
0.00220005
0.00219947
0.00219855
0.00219881
0.00219864
0.000267044
0.000776468
0.000900626
0.000917189
0.000920671
0.000921122
0.000921994
0.000921867
0.000921523
0.000920728
0.000921617
0.000920274
6.21217e-05
8.69092e-05
9.21741e-05
9.27781e-05
9.29079e-05
9.31096e-05
9.34093e-05
9.35987e-05
9.38486e-05
9.3952e-05
9.40136e-05
9.41074e-05
)
;

boundaryField
{
    rotor
    {
        type            nutkWallFunction;
        Cmu             0.09;
        kappa           0.41;
        E               9.8;
        value           nonuniform List<scalar> 
48
(
8.26424e-06
2.44099e-05
2.55532e-05
2.64046e-05
2.63867e-05
2.67127e-05
2.65272e-05
2.66802e-05
2.61626e-05
2.63085e-05
2.6691e-05
2.70318e-05
2.67974e-05
2.68127e-05
2.63459e-05
2.61831e-05
2.64942e-05
2.68455e-05
2.65148e-05
2.62686e-05
2.57928e-05
2.48465e-05
2.30867e-05
7.9283e-06
8.26424e-06
1.12956e-05
1.30106e-05
1.46656e-05
1.67242e-05
1.87218e-05
2.09469e-05
2.27236e-05
2.51077e-05
2.66543e-05
2.90037e-05
3.59098e-05
7.9283e-06
1.08424e-05
1.30727e-05
1.51053e-05
1.70759e-05
1.87929e-05
2.0863e-05
2.30662e-05
2.56312e-05
2.80178e-05
3.09844e-05
3.52455e-05
)
;
    }
    stator
    {
        type            nutkWallFunction;
        Cmu             0.09;
        kappa           0.41;
        E               9.8;
        value           nonuniform List<scalar> 
48
(
1.79637e-05
1.79303e-05
1.79028e-05
1.7868e-05
1.78315e-05
1.77929e-05
1.77569e-05
1.77231e-05
1.76991e-05
1.76561e-05
1.72226e-05
1.47545e-05
1.47885e-05
1.72378e-05
1.76512e-05
1.76941e-05
1.77058e-05
1.77245e-05
1.77523e-05
1.77718e-05
1.78132e-05
1.78243e-05
1.78185e-05
1.78302e-05
5.0866e-05
4.85136e-05
4.96887e-05
5.14755e-05
5.33756e-05
5.53028e-05
5.72728e-05
5.91475e-05
6.04963e-05
6.03431e-05
5.70138e-05
1.47885e-05
5.10867e-05
4.83663e-05
4.95126e-05
5.13616e-05
5.32462e-05
5.52096e-05
5.71646e-05
5.90149e-05
6.03485e-05
6.01618e-05
5.68617e-05
1.47545e-05
)
;
    }
    front
    {
        type            empty;
    }
    back
    {
        type            empty;
    }
    procBoundary1to0
    {
        type            processor;
        value           nonuniform List<scalar> 
20
(
0.00129841
0.00268384
0.00377581
0.00430062
0.00448151
0.00453672
0.00455278
0.00455763
0.00455961
0.00456075
0.00456169
0.00456258
0.00456336
0.0045583
0.0045063
0.00422496
0.00342372
0.00220614
0.000926891
9.46916e-05
)
;
    }
    procBoundary1to3
    {
        type            processor;
        value           nonuniform List<scalar> 
20
(
0.000882676
0.00235555
0.00362175
0.00425354
0.00446962
0.004535
0.00455356
0.004559
0.00456104
0.00456221
0.00456314
0.00456398
0.00456469
0.00455817
0.00450169
0.00420588
0.00340396
0.00219976
0.000921161
9.47212e-05
)
;
    }
}


// ************************************************************************* //
