/*--------------------------------*- C++ -*----------------------------------*\
  =========                 |
  \\      /  F ield         | OpenFOAM: The Open Source CFD Toolbox
   \\    /   O peration     | Website:  https://openfoam.org
    \\  /    A nd           | Version:  6
     \\/     M anipulation  |
\*---------------------------------------------------------------------------*/
FoamFile
{
    version     2.0;
    format      ascii;
    class       volScalarField;
    location    "500";
    object      k;
}
// * * * * * * * * * * * * * * * * * * * * * * * * * * * * * * * * * * * * * //

dimensions      [0 2 -2 0 0 0 0];

internalField   nonuniform List<scalar> 
3072
(
0.902027
0.944056
0.953854
0.956153
0.956733
0.956858
0.956935
0.956945
0.956964
0.956967
0.957002
0.956994
0.911367
0.963377
0.98168
0.986934
0.988318
0.988651
0.988751
0.988753
0.98875
0.988751
0.988796
0.988815
0.911252
0.966607
0.986778
0.992726
0.994329
0.994723
0.994813
0.994823
0.994834
0.994837
0.994846
0.994847
0.910638
0.967365
0.987633
0.993459
0.99498
0.99534
0.995444
0.995447
0.995468
0.995484
0.995478
0.99548
0.910151
0.967785
0.987843
0.993409
0.994797
0.995088
0.995132
0.995135
0.995145
0.995159
0.995199
0.99523
0.910265
0.968539
0.98806
0.993224
0.994415
0.994688
0.994732
0.994754
0.994757
0.994795
0.994774
0.994817
0.910793
0.969566
0.98812
0.993002
0.994094
0.994287
0.994345
0.994319
0.994391
0.994426
0.994401
0.994397
0.911761
0.970579
0.988351
0.99286
0.993799
0.994026
0.993981
0.993923
0.994029
0.99409
0.994089
0.99403
0.912855
0.971289
0.988484
0.992731
0.993517
0.993669
0.993649
0.993651
0.993744
0.993683
0.993709
0.993764
0.914294
0.971809
0.988718
0.99258
0.993346
0.993401
0.993273
0.993291
0.993391
0.993353
0.993371
0.993442
0.915983
0.973182
0.988819
0.99251
0.993228
0.993238
0.993093
0.993089
0.99316
0.993048
0.992964
0.992981
0.92747
0.977416
0.989806
0.992463
0.993036
0.992928
0.992744
0.992692
0.992664
0.992693
0.992816
0.992883
0.95701
0.956992
0.957005
0.956985
0.95701
0.956954
0.956929
0.956923
0.956892
0.956799
0.945352
0.897634
0.988789
0.988747
0.988748
0.988772
0.988806
0.988794
0.988767
0.98875
0.9885
0.985572
0.966144
0.909444
0.994847
0.994843
0.994862
0.994842
0.994824
0.994821
0.994827
0.994844
0.994537
0.991036
0.970124
0.910217
0.995479
0.995459
0.995465
0.995463
0.995467
0.995489
0.995516
0.995514
0.995219
0.991818
0.971091
0.90982
0.995217
0.995214
0.995227
0.995228
0.995222
0.995214
0.995244
0.99525
0.994991
0.991874
0.971912
0.91
0.994845
0.994838
0.994834
0.994844
0.994802
0.994828
0.994859
0.994921
0.994686
0.991755
0.972549
0.910188
0.994473
0.994469
0.994455
0.994458
0.994458
0.994485
0.994489
0.9945
0.994333
0.991797
0.973627
0.911098
0.993974
0.993994
0.994071
0.994091
0.994036
0.994132
0.994131
0.994119
0.993996
0.991666
0.974843
0.913028
0.993686
0.993702
0.993798
0.993766
0.993755
0.993845
0.993783
0.993737
0.993688
0.991654
0.97609
0.914768
0.993364
0.993311
0.993436
0.993501
0.993427
0.993462
0.99344
0.99342
0.9935
0.991773
0.976624
0.916183
0.993076
0.993158
0.993189
0.993088
0.993029
0.993171
0.993256
0.993225
0.993168
0.991809
0.978946
0.919023
0.992769
0.992695
0.992693
0.992683
0.99279
0.992958
0.992874
0.992868
0.992913
0.991934
0.982602
0.929487
0.899633
0.943467
0.95377
0.956141
0.956769
0.956842
0.956914
0.956887
0.956953
0.957001
0.957087
0.956994
0.911165
0.963216
0.981618
0.986917
0.988352
0.988691
0.98878
0.988778
0.98879
0.988758
0.988776
0.988787
0.911221
0.96649
0.98673
0.992727
0.994333
0.994705
0.99483
0.994854
0.994883
0.99487
0.994885
0.994854
0.910818
0.96726
0.987611
0.993485
0.995035
0.995391
0.995472
0.995468
0.995508
0.995494
0.995513
0.995521
0.91061
0.967823
0.987848
0.993435
0.994806
0.99515
0.99519
0.995281
0.995239
0.995263
0.995226
0.995291
0.910717
0.968582
0.988019
0.993166
0.994464
0.994698
0.994841
0.994779
0.994863
0.994804
0.994914
0.994789
0.91225
0.969741
0.988118
0.993005
0.994095
0.994402
0.994408
0.994405
0.994408
0.994498
0.994411
0.994392
0.913895
0.970949
0.988321
0.992877
0.993779
0.994016
0.994025
0.993975
0.994072
0.99413
0.994062
0.994052
0.915989
0.971844
0.988826
0.992808
0.993541
0.993688
0.993765
0.993785
0.993806
0.993786
0.993716
0.993647
0.917932
0.972748
0.98892
0.992646
0.993367
0.993364
0.993339
0.993419
0.993411
0.993341
0.993427
0.993493
0.918925
0.973936
0.989154
0.992617
0.993236
0.993169
0.993155
0.993186
0.993196
0.9932
0.993228
0.993241
0.932454
0.979198
0.989976
0.992513
0.993037
0.99305
0.992864
0.992716
0.992714
0.992751
0.992887
0.99298
0.956964
0.956988
0.957014
0.956989
0.957038
0.957003
0.956962
0.956908
0.9569
0.956797
0.945364
0.89764
0.988794
0.988785
0.988779
0.988744
0.988736
0.988731
0.988756
0.988748
0.988481
0.985552
0.966148
0.909448
0.994862
0.994847
0.994857
0.994845
0.994839
0.994848
0.994849
0.994835
0.994531
0.991069
0.97014
0.910216
0.995503
0.995469
0.995483
0.995509
0.995538
0.995538
0.995533
0.995522
0.995228
0.991806
0.971076
0.909726
0.995209
0.995225
0.9952
0.995271
0.995256
0.995292
0.995258
0.995269
0.99501
0.991825
0.971731
0.909482
0.994832
0.994814
0.994882
0.994814
0.99487
0.994896
0.99495
0.994916
0.994704
0.991802
0.972363
0.909894
0.99437
0.994473
0.994466
0.994453
0.994457
0.994559
0.994607
0.994581
0.994395
0.991743
0.973688
0.91108
0.994054
0.994086
0.994106
0.994128
0.994134
0.994185
0.994251
0.994185
0.994073
0.991741
0.974772
0.912816
0.993635
0.993657
0.993667
0.993702
0.993708
0.993811
0.993829
0.993818
0.99375
0.991684
0.975742
0.913493
0.993402
0.993406
0.993416
0.993373
0.993434
0.993552
0.993594
0.993554
0.993365
0.991784
0.97659
0.91566
0.993109
0.993033
0.99315
0.993114
0.993039
0.993156
0.993215
0.993162
0.993124
0.991776
0.978793
0.9169
0.992842
0.992868
0.992961
0.992807
0.992704
0.992838
0.992867
0.992806
0.992878
0.991962
0.982059
0.923191
0.902032
0.944072
0.953859
0.956145
0.956722
0.956836
0.956905
0.956928
0.956958
0.956918
0.956992
0.956981
0.911384
0.963395
0.981686
0.986943
0.988309
0.988636
0.988746
0.988754
0.988755
0.988742
0.988753
0.988742
0.911338
0.966633
0.986792
0.992744
0.994318
0.994686
0.994788
0.994803
0.994835
0.994852
0.994842
0.994837
0.910656
0.967402
0.987643
0.993459
0.994995
0.995345
0.995415
0.995423
0.995444
0.995469
0.995475
0.995477
0.910721
0.967937
0.987843
0.99337
0.994743
0.995088
0.995142
0.995131
0.995153
0.995189
0.995191
0.995196
0.910794
0.968684
0.987917
0.993158
0.994374
0.994637
0.994691
0.994719
0.994759
0.994785
0.994729
0.994752
0.911997
0.96968
0.988102
0.992868
0.993992
0.994211
0.994332
0.994333
0.99438
0.994417
0.994385
0.994383
0.912486
0.970464
0.988287
0.9928
0.993777
0.993992
0.99398
0.994003
0.994011
0.994025
0.994014
0.994025
0.913491
0.971448
0.988515
0.992665
0.993495
0.993606
0.993583
0.993683
0.993766
0.993677
0.993669
0.993665
0.917327
0.972502
0.988867
0.992557
0.993279
0.993362
0.993287
0.993395
0.993484
0.99337
0.993273
0.993343
0.91879
0.97416
0.989121
0.992598
0.993079
0.993135
0.9932
0.993117
0.993154
0.993163
0.993051
0.992976
0.932422
0.979188
0.989876
0.99255
0.993009
0.992985
0.992868
0.99288
0.992943
0.9928
0.992823
0.992907
0.95701
0.956976
0.956946
0.956973
0.957009
0.95697
0.956946
0.956918
0.956913
0.956797
0.945358
0.897636
0.988755
0.988775
0.98878
0.988776
0.988772
0.988758
0.988748
0.98873
0.988467
0.985552
0.966127
0.90944
0.994839
0.994819
0.994826
0.994846
0.994864
0.994866
0.994859
0.994851
0.994537
0.991054
0.970116
0.910201
0.995478
0.995457
0.995488
0.995511
0.995496
0.995498
0.995502
0.995487
0.995189
0.991791
0.971028
0.909694
0.995198
0.995171
0.995183
0.995188
0.995194
0.995215
0.995246
0.995253
0.994972
0.99182
0.971673
0.909443
0.994741
0.994761
0.994774
0.994787
0.9948
0.99487
0.994897
0.994932
0.994692
0.991773
0.97227
0.909803
0.994394
0.994359
0.994442
0.994429
0.994487
0.994541
0.994532
0.994559
0.994366
0.991711
0.973569
0.910846
0.994016
0.994037
0.994054
0.994031
0.994108
0.994194
0.994206
0.994231
0.994039
0.991622
0.974661
0.911904
0.993597
0.993599
0.993714
0.993791
0.993737
0.993769
0.993799
0.993761
0.993664
0.991607
0.975748
0.913689
0.993337
0.993277
0.993292
0.993339
0.993341
0.993425
0.993481
0.993454
0.993565
0.991845
0.976838
0.914902
0.993073
0.99314
0.99309
0.993146
0.993124
0.993123
0.993138
0.993037
0.993162
0.99186
0.978217
0.916628
0.992787
0.992683
0.992848
0.992957
0.992824
0.992839
0.992849
0.99274
0.992888
0.991955
0.981584
0.924817
0.902124
0.944103
0.953875
0.95616
0.956745
0.956889
0.956978
0.956995
0.956993
0.956987
0.957014
0.957003
0.911518
0.963402
0.981682
0.986956
0.988342
0.988678
0.988769
0.98879
0.988801
0.988771
0.988807
0.988825
0.911282
0.966622
0.986798
0.992758
0.994338
0.994712
0.994806
0.99482
0.994856
0.994846
0.994841
0.99485
0.910684
0.967391
0.987671
0.993482
0.995019
0.995366
0.995444
0.99546
0.995495
0.995508
0.995493
0.995494
0.910477
0.96784
0.987829
0.993407
0.9948
0.995125
0.995187
0.995227
0.995178
0.995213
0.995174
0.995245
0.910934
0.968641
0.987956
0.993191
0.994486
0.994713
0.99487
0.994823
0.994895
0.994841
0.994869
0.994808
0.911409
0.969548
0.988089
0.992985
0.994111
0.99441
0.994398
0.994424
0.994419
0.99446
0.994477
0.99446
0.911892
0.970541
0.988254
0.99289
0.993825
0.99403
0.994037
0.99399
0.994078
0.994068
0.994085
0.994149
0.913148
0.971435
0.98858
0.992723
0.993601
0.993747
0.993712
0.993732
0.993825
0.993796
0.993735
0.993744
0.915832
0.972474
0.988868
0.992572
0.993251
0.993419
0.9934
0.993427
0.99353
0.993419
0.993419
0.993386
0.919304
0.974596
0.989123
0.992557
0.993132
0.993101
0.993028
0.993092
0.993227
0.993107
0.993121
0.993099
0.929796
0.979066
0.990055
0.992468
0.992774
0.992713
0.992701
0.992695
0.99282
0.992822
0.992876
0.992956
0.957014
0.957001
0.957008
0.956984
0.95697
0.956939
0.956944
0.956903
0.956897
0.956795
0.945354
0.897637
0.988796
0.98875
0.988742
0.988731
0.988734
0.988737
0.988748
0.988746
0.988482
0.985559
0.966146
0.909434
0.99485
0.994822
0.99483
0.994842
0.994847
0.994845
0.994848
0.994836
0.994532
0.99106
0.970111
0.910098
0.995497
0.995493
0.995495
0.995477
0.995503
0.995527
0.995536
0.995531
0.995232
0.991821
0.97102
0.909486
0.995208
0.99522
0.995198
0.995221
0.995207
0.995244
0.995238
0.995263
0.994991
0.991821
0.97175
0.909458
0.994864
0.994839
0.994923
0.994852
0.994866
0.994893
0.994931
0.994939
0.994736
0.991844
0.972329
0.909769
0.994407
0.994485
0.994476
0.994458
0.994515
0.994608
0.994614
0.994612
0.994417
0.991811
0.973584
0.910106
0.994148
0.99409
0.994058
0.994052
0.994086
0.994186
0.994227
0.994169
0.994047
0.991807
0.974565
0.911052
0.993719
0.993687
0.993761
0.993747
0.993713
0.993831
0.993934
0.993856
0.993762
0.991734
0.975891
0.912193
0.993307
0.993408
0.993425
0.993355
0.993436
0.993549
0.993514
0.993557
0.993595
0.991857
0.976375
0.914375
0.992983
0.992993
0.993125
0.993096
0.993039
0.993154
0.99314
0.99317
0.993208
0.991733
0.977989
0.916509
0.992828
0.992704
0.99283
0.992787
0.992732
0.992883
0.992836
0.992857
0.992921
0.991971
0.981483
0.924682
0.976268
0.988615
0.99181
0.992567
0.992712
0.992781
0.992567
0.992407
0.992369
0.99256
0.992659
0.992518
0.99017
0.99175
0.992338
0.992556
0.992466
0.992429
0.992318
0.992139
0.992116
0.992308
0.992317
0.992146
0.992514
0.992495
0.99241
0.992336
0.992412
0.992208
0.991974
0.991924
0.991926
0.991949
0.992068
0.992033
0.992233
0.992243
0.992296
0.992053
0.992089
0.992155
0.99192
0.991917
0.992027
0.99187
0.991728
0.991872
0.992383
0.99253
0.992523
0.992427
0.992402
0.992553
0.992547
0.992714
0.992781
0.992463
0.989436
0.969784
0.992099
0.992319
0.992439
0.99242
0.99228
0.992211
0.992239
0.99246
0.992611
0.992661
0.99186
0.988279
0.991891
0.992063
0.99206
0.991939
0.992099
0.992273
0.992332
0.992164
0.992087
0.992301
0.99235
0.991605
0.991823
0.991708
0.991697
0.991689
0.991888
0.992081
0.992151
0.991948
0.991975
0.99215
0.992046
0.991993
0.976349
0.988745
0.991967
0.992579
0.992638
0.992664
0.9926
0.992453
0.992543
0.992697
0.992715
0.99273
0.990345
0.99179
0.992347
0.992594
0.992622
0.9924
0.992367
0.992284
0.992167
0.992336
0.992351
0.992395
0.992355
0.992258
0.992508
0.992554
0.992398
0.992162
0.991963
0.991891
0.991896
0.991976
0.992117
0.99226
0.992187
0.991935
0.992149
0.992295
0.992022
0.991802
0.991734
0.99169
0.991871
0.992025
0.991903
0.99194
0.992579
0.992618
0.99262
0.992458
0.992403
0.992567
0.992591
0.992652
0.99268
0.992409
0.989334
0.9696
0.992326
0.992356
0.99247
0.992422
0.992261
0.992324
0.99236
0.992394
0.992404
0.992489
0.991812
0.98842
0.992098
0.991973
0.99197
0.991915
0.991941
0.992132
0.992269
0.992072
0.992022
0.992224
0.992379
0.991954
0.991891
0.991894
0.991848
0.991701
0.991882
0.992053
0.99194
0.99169
0.991715
0.99194
0.992019
0.992064
0.976272
0.988584
0.991581
0.992574
0.992798
0.992674
0.992475
0.992579
0.99255
0.992401
0.992541
0.992675
0.990225
0.991551
0.992241
0.992465
0.99238
0.992471
0.992333
0.992211
0.992192
0.992156
0.992196
0.992321
0.992408
0.992454
0.992316
0.992336
0.992402
0.992384
0.992151
0.992099
0.992092
0.992099
0.992225
0.992097
0.992228
0.992026
0.992116
0.992203
0.992096
0.99205
0.991955
0.991784
0.99191
0.991885
0.991937
0.992027
0.992523
0.992414
0.992574
0.992561
0.992406
0.992564
0.992621
0.992626
0.992666
0.992457
0.989299
0.969958
0.992264
0.992275
0.992308
0.992193
0.992131
0.992314
0.992331
0.992252
0.99228
0.99257
0.991769
0.988438
0.99191
0.991895
0.992075
0.992175
0.992045
0.99211
0.992132
0.991957
0.992017
0.992262
0.992185
0.991495
0.991833
0.991679
0.991697
0.991707
0.991725
0.991917
0.992088
0.991853
0.991781
0.991819
0.992046
0.99217
0.977468
0.988836
0.991876
0.992443
0.992523
0.99263
0.992585
0.992444
0.992412
0.992553
0.992682
0.99271
0.990493
0.99174
0.992182
0.992297
0.992507
0.992556
0.992502
0.992428
0.992292
0.992207
0.992223
0.992226
0.992545
0.992267
0.992041
0.992216
0.992421
0.992201
0.991962
0.99193
0.992123
0.992267
0.992288
0.992268
0.992225
0.992163
0.991957
0.991854
0.992068
0.991949
0.991716
0.991713
0.991935
0.992092
0.992108
0.992088
0.992681
0.992529
0.992428
0.992396
0.992533
0.992739
0.992615
0.992725
0.992839
0.992535
0.989062
0.96923
0.99219
0.99218
0.992139
0.992099
0.99212
0.992362
0.992367
0.992429
0.992429
0.992512
0.991679
0.988223
0.992086
0.992075
0.992014
0.991856
0.991853
0.992087
0.992089
0.991997
0.992046
0.992262
0.992145
0.991368
0.991885
0.991722
0.991685
0.991641
0.991661
0.991862
0.991878
0.991898
0.991893
0.992004
0.992012
0.991954
0.991951
0.991814
0.991742
0.991696
0.991691
0.991682
0.991608
0.991608
0.991602
0.991579
0.991564
0.991577
0.991702
0.991542
0.991502
0.991471
0.991482
0.99145
0.991421
0.991404
0.991385
0.991377
0.99137
0.991122
0.991496
0.991319
0.991291
0.991255
0.991282
0.991252
0.991239
0.991219
0.991226
0.991217
0.990954
0.988123
0.991318
0.991109
0.991079
0.991088
0.991093
0.991065
0.991072
0.991051
0.991063
0.990979
0.989092
0.973699
0.991573
0.991546
0.991545
0.991544
0.991554
0.99162
0.991651
0.991622
0.991573
0.991619
0.991678
0.991663
0.991047
0.991284
0.991344
0.991362
0.991342
0.991391
0.99138
0.991405
0.991367
0.99138
0.991426
0.99145
0.987698
0.990494
0.991079
0.991169
0.991164
0.991203
0.991191
0.991222
0.991196
0.991197
0.991215
0.991239
0.972941
0.98789
0.990632
0.990972
0.991
0.991023
0.991024
0.991054
0.991036
0.991039
0.991043
0.991066
0.991966
0.991732
0.991737
0.991727
0.991663
0.991588
0.991575
0.991533
0.99157
0.9916
0.991598
0.991582
0.991705
0.991504
0.991431
0.991464
0.991446
0.99142
0.991405
0.991375
0.991374
0.991371
0.99138
0.991155
0.991516
0.99128
0.99125
0.991262
0.991259
0.991236
0.991214
0.991212
0.991189
0.991199
0.99096
0.988115
0.991351
0.991092
0.99105
0.991092
0.991108
0.991063
0.99106
0.99106
0.99104
0.990977
0.989099
0.973704
0.991593
0.991592
0.991556
0.991552
0.991573
0.991593
0.991569
0.99153
0.991538
0.991568
0.991629
0.99172
0.991067
0.99131
0.991352
0.991355
0.991374
0.99134
0.991326
0.991368
0.991369
0.99135
0.991392
0.991475
0.987743
0.990523
0.991095
0.991164
0.991184
0.991175
0.991169
0.991198
0.991177
0.991189
0.991201
0.99127
0.972993
0.987907
0.990642
0.99097
0.991
0.991007
0.991009
0.991035
0.991014
0.991026
0.991045
0.991079
0.991969
0.991795
0.991706
0.991718
0.991723
0.991677
0.991646
0.991592
0.99158
0.99157
0.991571
0.991571
0.991718
0.991534
0.991485
0.991468
0.99149
0.991465
0.991431
0.991398
0.991382
0.991388
0.991372
0.991113
0.991528
0.991308
0.991301
0.991251
0.991287
0.991255
0.991239
0.991232
0.991227
0.99122
0.990968
0.988158
0.991356
0.991121
0.991118
0.991079
0.991113
0.991084
0.991073
0.991069
0.991067
0.990975
0.989079
0.973618
0.991543
0.991529
0.991531
0.991537
0.991537
0.99157
0.991598
0.991541
0.991592
0.991628
0.99165
0.991734
0.991045
0.991284
0.991339
0.991369
0.991346
0.991364
0.991343
0.991355
0.99137
0.991401
0.991421
0.991471
0.987725
0.990498
0.991085
0.991171
0.991164
0.991181
0.991158
0.991183
0.991194
0.991186
0.991225
0.991259
0.97296
0.987903
0.99064
0.990974
0.991005
0.991006
0.991001
0.991031
0.991026
0.99102
0.991047
0.991071
0.991959
0.991782
0.99166
0.991666
0.991684
0.991595
0.991551
0.991552
0.991579
0.991606
0.991605
0.991589
0.991696
0.991492
0.991438
0.991435
0.991434
0.991408
0.991396
0.991369
0.991367
0.991374
0.991379
0.99114
0.991503
0.991291
0.991259
0.991216
0.991234
0.991225
0.99123
0.991196
0.991206
0.991204
0.990967
0.988121
0.991338
0.991113
0.991056
0.991053
0.991069
0.991049
0.991056
0.991035
0.991041
0.990959
0.989083
0.973621
0.991572
0.991552
0.991529
0.991498
0.991509
0.991555
0.991581
0.991561
0.991567
0.99158
0.991651
0.991659
0.991039
0.991282
0.991335
0.991326
0.99132
0.991346
0.991347
0.991346
0.991369
0.991349
0.991389
0.991448
0.987719
0.990508
0.991084
0.991147
0.991155
0.991169
0.99117
0.99119
0.99118
0.99119
0.991197
0.991227
0.972949
0.987901
0.990644
0.990967
0.990998
0.991007
0.991021
0.991029
0.990998
0.991019
0.991043
0.991063
0.991167
0.990951
0.990938
0.990934
0.990934
0.990911
0.990918
0.990903
0.990905
0.990566
0.984575
0.935627
0.991008
0.990796
0.9908
0.990783
0.990789
0.99078
0.990776
0.990767
0.99076
0.990322
0.983229
0.928864
0.990875
0.990668
0.990657
0.99065
0.99065
0.990646
0.990643
0.99064
0.990621
0.990184
0.983143
0.928555
0.990762
0.990548
0.990525
0.990529
0.990531
0.990516
0.990521
0.990519
0.990506
0.990099
0.983397
0.929598
0.990627
0.990428
0.990412
0.990416
0.990415
0.990405
0.990406
0.990404
0.990391
0.990029
0.983737
0.930875
0.990516
0.990311
0.990301
0.990308
0.990312
0.990298
0.990303
0.9903
0.99029
0.989964
0.984071
0.932142
0.99042
0.990214
0.990198
0.990208
0.990218
0.990206
0.990206
0.990202
0.990196
0.989903
0.984378
0.933383
0.990329
0.990126
0.990108
0.990114
0.990122
0.990115
0.990113
0.990112
0.990106
0.989846
0.984664
0.934618
0.989405
0.989088
0.989081
0.989069
0.989098
0.989061
0.989091
0.989056
0.989079
0.988824
0.983988
0.93574
0.98139
0.980584
0.980525
0.980528
0.980539
0.980529
0.980524
0.980516
0.980525
0.980318
0.976185
0.936472
0.940287
0.937728
0.937575
0.937544
0.937543
0.937529
0.9375
0.937496
0.937501
0.937377
0.935269
0.911262
0.84221
0.840813
0.840761
0.840613
0.840584
0.840557
0.840474
0.840429
0.840438
0.840385
0.838949
0.82388
0.935703
0.983227
0.990047
0.990786
0.990847
0.990859
0.990862
0.990899
0.990879
0.990866
0.990898
0.99091
0.929369
0.981825
0.989761
0.990642
0.990717
0.990736
0.990745
0.990765
0.990742
0.99074
0.990753
0.99078
0.929069
0.981768
0.989646
0.990512
0.99059
0.990611
0.990631
0.990635
0.990622
0.99061
0.990622
0.990657
0.93002
0.98207
0.989601
0.990406
0.990477
0.990497
0.990517
0.990519
0.990505
0.990507
0.990505
0.990538
0.931237
0.982461
0.989575
0.990309
0.99037
0.990385
0.990401
0.990404
0.990389
0.990372
0.990385
0.990424
0.93245
0.98285
0.989554
0.990219
0.990277
0.990283
0.990294
0.990306
0.990289
0.990286
0.990286
0.99032
0.933678
0.983221
0.989533
0.990131
0.990185
0.990193
0.990189
0.990206
0.990188
0.990199
0.990196
0.990218
0.934889
0.983569
0.989512
0.990048
0.990098
0.990107
0.990105
0.990112
0.990111
0.990113
0.990109
0.990126
0.936066
0.983079
0.988546
0.989027
0.989053
0.989086
0.989054
0.989101
0.989041
0.989107
0.989073
0.98909
0.937074
0.975886
0.980138
0.980497
0.980534
0.980551
0.980548
0.980558
0.980534
0.980586
0.980581
0.980582
0.914048
0.935015
0.937296
0.937499
0.937531
0.937579
0.937557
0.937578
0.937599
0.937623
0.937632
0.93766
0.825515
0.839078
0.840325
0.84043
0.840483
0.840534
0.840545
0.840566
0.840706
0.84069
0.840747
0.841025
0.991183
0.990939
0.990909
0.990929
0.99093
0.990909
0.990914
0.990907
0.990888
0.990562
0.984569
0.935767
0.991021
0.990794
0.99076
0.990792
0.990783
0.990785
0.990782
0.990782
0.990755
0.990325
0.983232
0.929141
0.990874
0.990657
0.990656
0.990654
0.990652
0.99065
0.99064
0.990645
0.990624
0.990185
0.983149
0.92868
0.990745
0.990531
0.99053
0.990532
0.990537
0.990527
0.990523
0.990529
0.990517
0.990106
0.983408
0.929626
0.990628
0.990426
0.990423
0.990431
0.990427
0.990422
0.990409
0.990418
0.9904
0.990033
0.983741
0.930846
0.990526
0.990319
0.990306
0.990325
0.990326
0.990326
0.990309
0.990313
0.990298
0.989975
0.984081
0.932158
0.990432
0.990228
0.990213
0.990216
0.990226
0.990222
0.990217
0.990213
0.990203
0.989913
0.984391
0.933407
0.990335
0.990144
0.990123
0.990128
0.990131
0.990128
0.990126
0.990124
0.990117
0.989857
0.984678
0.934626
0.989408
0.989113
0.989096
0.98906
0.989117
0.989065
0.989104
0.989076
0.989089
0.988846
0.984
0.935745
0.981417
0.980612
0.980536
0.980533
0.980545
0.980534
0.980549
0.980539
0.980546
0.98034
0.976204
0.936477
0.940379
0.937737
0.937542
0.937525
0.937566
0.93757
0.937535
0.937516
0.93753
0.937404
0.935287
0.911269
0.842391
0.840814
0.840679
0.840625
0.840615
0.840633
0.840535
0.840445
0.840452
0.840399
0.838951
0.823862
0.935812
0.983228
0.990053
0.99079
0.990858
0.990852
0.990866
0.990887
0.990872
0.990862
0.990863
0.990911
0.929364
0.981835
0.989756
0.990631
0.99072
0.990726
0.990727
0.990745
0.990732
0.99074
0.990743
0.99078
0.92902
0.981775
0.989645
0.990508
0.990588
0.99061
0.990592
0.990608
0.990604
0.990615
0.990616
0.990654
0.930016
0.982073
0.989597
0.990398
0.990469
0.990485
0.990478
0.990493
0.99049
0.990497
0.990502
0.990531
0.931244
0.982471
0.989572
0.990307
0.990362
0.990373
0.990379
0.990384
0.990382
0.990391
0.990393
0.990424
0.932453
0.982855
0.989551
0.990209
0.990262
0.990276
0.990281
0.990275
0.990293
0.990287
0.990291
0.99031
0.933681
0.983228
0.989532
0.990126
0.990172
0.990188
0.990187
0.990182
0.990193
0.990185
0.990188
0.99021
0.934887
0.983573
0.989511
0.990046
0.990086
0.9901
0.990099
0.990103
0.990108
0.990101
0.990108
0.990123
0.936073
0.98308
0.988556
0.989013
0.989064
0.98906
0.989069
0.989067
0.989076
0.989073
0.98907
0.989089
0.937082
0.975891
0.980139
0.980493
0.980525
0.980542
0.980537
0.980545
0.980559
0.980569
0.980567
0.980577
0.914055
0.935022
0.9373
0.937503
0.937526
0.937577
0.937553
0.937554
0.937624
0.937613
0.937596
0.937617
0.825518
0.839086
0.840329
0.840429
0.840475
0.840554
0.840564
0.840522
0.840692
0.840663
0.840583
0.840876
0.991178
0.990953
0.990942
0.990934
0.990955
0.990924
0.990915
0.990905
0.990898
0.99055
0.984549
0.935607
0.991034
0.990798
0.990791
0.990792
0.990807
0.99077
0.990763
0.990761
0.990756
0.990313
0.983222
0.928858
0.990886
0.990668
0.990655
0.990642
0.990666
0.990638
0.990632
0.990633
0.990626
0.990179
0.983133
0.928563
0.990763
0.990548
0.990528
0.990531
0.990541
0.990523
0.99052
0.990519
0.99051
0.990097
0.983397
0.929635
0.99063
0.990432
0.990406
0.990416
0.990424
0.990412
0.990405
0.990408
0.990394
0.990028
0.983732
0.930879
0.990532
0.99032
0.990299
0.990306
0.990312
0.990298
0.990297
0.990298
0.99029
0.989964
0.984069
0.932123
0.990428
0.990223
0.990198
0.990207
0.990213
0.990203
0.990199
0.990201
0.990192
0.989902
0.984378
0.933384
0.990331
0.990137
0.990115
0.990109
0.990116
0.990113
0.990108
0.990111
0.990105
0.989845
0.984664
0.934615
0.989403
0.989104
0.989089
0.989071
0.989087
0.989063
0.989086
0.989055
0.989078
0.988826
0.983988
0.935723
0.981411
0.980593
0.980545
0.980529
0.980527
0.980521
0.980527
0.980514
0.980525
0.980319
0.976186
0.936469
0.940366
0.937719
0.937546
0.937504
0.937509
0.937491
0.937501
0.937492
0.937506
0.937383
0.93527
0.911261
0.842357
0.840807
0.840531
0.840496
0.840568
0.840512
0.840487
0.840444
0.84044
0.840396
0.838955
0.82386
0.935971
0.983228
0.990054
0.990791
0.990852
0.990855
0.990853
0.990892
0.990864
0.990857
0.990879
0.990917
0.929389
0.981838
0.98976
0.990638
0.990716
0.990734
0.990725
0.990758
0.990724
0.990745
0.990747
0.99078
0.929007
0.981773
0.989645
0.990515
0.990593
0.99061
0.990613
0.99063
0.99061
0.99061
0.990613
0.990647
0.929974
0.982076
0.9896
0.990411
0.990486
0.990496
0.990513
0.99052
0.990504
0.990497
0.990486
0.990522
0.931215
0.982469
0.989576
0.990308
0.990381
0.990385
0.990404
0.990401
0.990389
0.990374
0.990376
0.990414
0.932466
0.982859
0.989557
0.990218
0.990277
0.990281
0.990299
0.990293
0.990296
0.990282
0.990283
0.990311
0.93369
0.983225
0.989536
0.990134
0.990178
0.990188
0.990195
0.990198
0.990192
0.990181
0.990185
0.990208
0.934896
0.983571
0.989514
0.990051
0.990093
0.990104
0.99011
0.990114
0.990107
0.990107
0.990101
0.990118
0.936072
0.983081
0.988547
0.989027
0.98905
0.989081
0.989052
0.989098
0.989042
0.989103
0.989066
0.989082
0.937076
0.975889
0.980139
0.980498
0.980529
0.980542
0.98054
0.980554
0.980538
0.980576
0.980573
0.980576
0.914053
0.935017
0.937301
0.937507
0.93754
0.937573
0.93759
0.937577
0.937585
0.937627
0.937661
0.93768
0.825524
0.839074
0.840321
0.840433
0.840487
0.840559
0.840657
0.840629
0.840676
0.840821
0.840877
0.841034
0.991163
0.99095
0.99091
0.990898
0.990918
0.990907
0.99089
0.990888
0.990884
0.990548
0.984567
0.935603
0.991001
0.9908
0.990763
0.990758
0.99079
0.990771
0.990755
0.990757
0.990748
0.990313
0.983218
0.928884
0.990864
0.990659
0.990644
0.990635
0.990657
0.99063
0.990624
0.990626
0.990617
0.990178
0.983122
0.928645
0.990744
0.990528
0.990511
0.990521
0.990538
0.990511
0.990517
0.99051
0.990509
0.990101
0.983402
0.929645
0.990621
0.990421
0.990415
0.990417
0.990424
0.990401
0.99041
0.9904
0.990394
0.990027
0.983735
0.930886
0.990512
0.990312
0.990315
0.990317
0.990317
0.990297
0.990309
0.990302
0.990293
0.989968
0.984076
0.93217
0.990422
0.990223
0.990212
0.99021
0.990217
0.990199
0.990207
0.990204
0.990198
0.989906
0.984383
0.933401
0.990327
0.990136
0.990116
0.990114
0.990117
0.990113
0.990116
0.990115
0.990111
0.989851
0.98467
0.934609
0.989404
0.989102
0.989076
0.989044
0.989104
0.989063
0.989094
0.98907
0.989079
0.98884
0.983993
0.935734
0.981416
0.980605
0.98051
0.980509
0.980535
0.980534
0.980532
0.980527
0.980532
0.980332
0.976197
0.936478
0.940341
0.937748
0.93755
0.937539
0.937536
0.937517
0.937498
0.937503
0.937513
0.937395
0.935281
0.911265
0.842373
0.840814
0.840655
0.840655
0.8406
0.840533
0.840448
0.840445
0.840453
0.840396
0.838958
0.823867
0.935699
0.983224
0.990051
0.990781
0.990849
0.990857
0.990859
0.990863
0.99084
0.990872
0.990879
0.990903
0.929286
0.981809
0.989748
0.990628
0.990705
0.990718
0.990709
0.990724
0.990707
0.990735
0.990739
0.990773
0.929001
0.981759
0.989638
0.990506
0.99058
0.990586
0.990584
0.990611
0.990594
0.990606
0.990614
0.990645
0.930008
0.982071
0.98959
0.990394
0.990469
0.99047
0.99047
0.990497
0.990493
0.990491
0.990503
0.990526
0.931226
0.982465
0.989566
0.990299
0.990363
0.990373
0.990364
0.990381
0.990386
0.990379
0.990391
0.990415
0.932448
0.98285
0.989545
0.990206
0.990264
0.990276
0.990267
0.990281
0.990292
0.990275
0.990287
0.990306
0.933691
0.98322
0.989526
0.990122
0.990175
0.990183
0.990176
0.990189
0.990185
0.99018
0.990189
0.990211
0.934896
0.983565
0.989503
0.99004
0.990084
0.990092
0.99009
0.990101
0.990097
0.990103
0.990103
0.990122
0.936072
0.983071
0.98855
0.989005
0.989063
0.989049
0.989071
0.989062
0.989068
0.989067
0.989066
0.989086
0.937079
0.975885
0.980132
0.980485
0.980525
0.980535
0.980544
0.980547
0.980541
0.980554
0.980561
0.980575
0.914051
0.935013
0.937292
0.937489
0.937528
0.93757
0.937574
0.937563
0.937571
0.937585
0.937591
0.937612
0.825516
0.839085
0.840325
0.840426
0.840494
0.840542
0.84057
0.840557
0.840645
0.840653
0.840582
0.84086
)
;

boundaryField
{
    rotor
    {
        type            kqRWallFunction;
        value           nonuniform List<scalar> 
192
(
0.902027
0.944056
0.953854
0.956153
0.956733
0.956858
0.956935
0.956945
0.956964
0.956967
0.957002
0.956994
0.95701
0.956992
0.957005
0.956985
0.95701
0.956954
0.956929
0.956923
0.956892
0.956799
0.945352
0.897634
0.899633
0.943467
0.95377
0.956141
0.956769
0.956842
0.956914
0.956887
0.956953
0.957001
0.957087
0.956994
0.956964
0.956988
0.957014
0.956989
0.957038
0.957003
0.956962
0.956908
0.9569
0.956797
0.945364
0.89764
0.902032
0.944072
0.953859
0.956145
0.956722
0.956836
0.956905
0.956928
0.956958
0.956918
0.956992
0.956981
0.95701
0.956976
0.956946
0.956973
0.957009
0.95697
0.956946
0.956918
0.956913
0.956797
0.945358
0.897636
0.902124
0.944103
0.953875
0.95616
0.956745
0.956889
0.956978
0.956995
0.956993
0.956987
0.957014
0.957003
0.957014
0.957001
0.957008
0.956984
0.95697
0.956939
0.956944
0.956903
0.956897
0.956795
0.945354
0.897637
0.902027
0.911367
0.911252
0.910638
0.910151
0.910265
0.910793
0.911761
0.912855
0.914294
0.915983
0.92747
0.897637
0.909434
0.910098
0.909486
0.909458
0.909769
0.910106
0.911052
0.912193
0.914375
0.916509
0.924682
0.899633
0.911165
0.911221
0.910818
0.91061
0.910717
0.91225
0.913895
0.915989
0.917932
0.918925
0.932454
0.897634
0.909444
0.910217
0.90982
0.91
0.910188
0.911098
0.913028
0.914768
0.916183
0.919023
0.929487
0.902032
0.911384
0.911338
0.910656
0.910721
0.910794
0.911997
0.912486
0.913491
0.917327
0.91879
0.932422
0.89764
0.909448
0.910216
0.909726
0.909482
0.909894
0.91108
0.912816
0.913493
0.91566
0.9169
0.923191
0.902124
0.911518
0.911282
0.910684
0.910477
0.910934
0.911409
0.911892
0.913148
0.915832
0.919304
0.929796
0.897636
0.90944
0.910201
0.909694
0.909443
0.909803
0.910846
0.911904
0.913689
0.914902
0.916628
0.924817
)
;
    }
    stator
    {
        type            kqRWallFunction;
        value           nonuniform List<scalar> 
192
(
0.84221
0.840813
0.840761
0.840613
0.840584
0.840557
0.840474