/*--------------------------------*- C++ -*----------------------------------*\
  =========                 |
  \\      /  F ield         | OpenFOAM: The Open Source CFD Toolbox
   \\    /   O peration     | Website:  https://openfoam.org
    \\  /    A nd           | Version:  6
     \\/     M anipulation  |
\*---------------------------------------------------------------------------*/
FoamFile
{
    version     2.0;
    format      ascii;
    class       volScalarField;
    location    "500";
    object      p;
}
// * * * * * * * * * * * * * * * * * * * * * * * * * * * * * * * * * * * * * //

dimensions      [0 2 -2 0 0 0 0];

internalField   nonuniform List<scalar> 
3072
(
-0.447274
0.32028
1.3273
2.32555
3.29751
4.24043
5.15076
6.03343
6.88871
7.72457
8.54352
9.35496
-0.516363
0.347056
1.38597
2.40322
3.38392
4.32676
5.23169
6.10369
6.94597
7.76604
8.56869
9.36217
-0.500878
0.430314
1.51082
2.55097
3.53951
4.47813
5.37032
6.22305
7.04208
7.83569
8.61036
9.37454
-0.39664
0.59653
1.71193
2.76819
3.75676
4.68282
5.5535
6.37833
7.16544
7.92446
8.66306
9.39024
-0.203162
0.850415
1.99323
3.05546
4.03298
4.93551
5.77455
6.56243
7.30979
8.02723
8.72363
9.40811
0.0860907
1.19715
2.35711
3.41139
4.36386
5.22966
6.02636
6.76817
7.46903
8.13908
8.78914
9.42665
0.483166
1.64486
2.80491
3.83288
4.7419
5.55717
6.29952
6.98811
7.63585
8.25572
8.85563
9.44537
1.00486
2.20427
3.33969
4.31514
5.15992
5.90827
6.58632
7.21399
7.80553
8.37201
8.92188
9.46237
1.68628
2.8953
3.96586
4.85395
5.60965
6.27513
6.87917
7.44094
7.9735
8.48619
8.98597
9.47842
2.56977
3.73705
4.68118
5.43832
6.07879
6.64722
7.17022
7.6631
8.13609
8.5957
9.04689
9.49318
3.73717
4.74778
5.47124
6.04808
6.55037
7.01262
7.45139
7.87544
8.29008
8.69876
9.10379
9.50676
5.34262
5.92126
6.29631
6.65045
7.0032
7.3581
7.7147
8.0729
8.43241
8.7934
9.15568
9.51882
10.1621
10.9739
11.7943
12.6313
13.4884
14.3718
15.2836
16.2266
17.1994
18.197
19.2034
19.9696
10.1518
10.9457
11.7495
12.5707
13.4147
14.2877
15.194
16.1375
17.1194
18.1366
19.1751
20.0374
10.1348
10.8993
11.675
12.4696
13.2901
14.1439
15.0376
15.9773
16.9673
18.008
19.0885
20.0188
10.1133
10.8408
11.5802
12.3401
13.1285
13.9545
14.8268
15.7543
16.7447
17.802
18.9176
19.9099
10.0884
10.7732
11.4701
12.1883
12.9367
13.7258
14.5665
15.4709
16.4503
17.5138
18.6571
19.7102
10.061
10.6987
11.349
12.0196
12.7212
13.4644
14.2626
15.1303
16.0845
17.1409
18.3014
19.412
10.0307
10.6204
11.2205
11.8404
12.4888
13.1781
13.9219
14.7387
15.6502
16.6795
17.8408
19.0029
9.99969
10.5399
11.0895
11.6556
12.2471
12.875
13.5541
14.3035
15.1496
16.1268
17.2629
18.4613
9.96831
10.4603
10.9592
11.471
12.0028
12.5642
13.1681
13.8338
14.5903
15.4785
16.5492
17.7586
9.9377
10.3833
10.8331
11.2912
11.7626
12.2543
12.776
13.3437
13.9829
14.7396
15.6823
16.8482
9.90873
10.3107
10.7139
11.1204
11.5328
11.9546
12.3911
12.851
13.351
13.9249
14.6457
15.6541
9.88188
10.2438
10.6039
10.9621
11.3186
11.6736
12.0269
12.3782
12.727
13.0769
13.4469
14.0206
-0.0954628
0.597751
1.52539
2.46699
3.39169
4.29887
5.17851
6.03728
6.87187
7.69157
8.49636
9.2963
-0.303256
0.534244
1.5318
2.51116
3.45663
4.36992
5.24876
6.09929
6.92306
7.7279
8.51734
9.29977
-0.368454
0.550136
1.60718
2.62249
3.58571
4.50144
5.37244
6.20701
7.00986
7.78991
8.55255
9.30664
-0.313841
0.671309
1.77157
2.81024
3.78
4.68788
5.5413
6.35064
7.12383
7.87074
8.59864
9.31664
-0.152885
0.895096
2.02733
3.07596
4.03959
4.9262
5.75182
6.52507
7.26135
7.96665
8.65458
9.32933
0.114475
1.22151
2.37326
3.41854
4.35758
5.21292
5.995
6.72702
7.41452
8.07664
8.71541
9.34706
0.494464
1.65432
2.80867
3.82939
4.73001
5.53397
6.26626
6.94308
7.58139
8.19066
8.78279
9.36391
1.00929
2.20524
3.33789
4.30675
5.14403
5.88334
6.5518
7.1694
7.75122
8.30824
8.84968
9.38258
1.68598
2.89427
3.96024
4.84391
5.59299
6.25058
6.84575
7.39818
7.92125
8.42472
8.91608
9.40108
2.5737
3.73772
4.67848
5.42961
6.06361
6.6247
7.13929
7.62329
8.0869
8.53745
8.98015
9.41915
3.7471
4.75452
5.4713
6.04238
6.53799
6.99286
7.42362
7.83894
8.24448
8.64407
9.04073
9.43647
5.36248
5.93433
6.30235
6.64836
6.99377
7.34122
7.68998
8.03966
8.39029
8.74233
9.09634
9.45245
10.0932
10.8967
11.7096
12.5404
13.3919
14.2706
15.1782
16.1178
17.0876
18.0828
19.0877
19.8533
10.0797
10.8656
11.6622
12.4774
13.3161
14.1846
15.087
16.0272
17.0062
18.0211
19.0582
19.92
10.0579
10.815
11.5838
12.3729
13.1884
14.0381
14.9281
15.8648
16.8521
17.8907
18.9699
19.8997
10.0315
10.7521
11.4852
12.2398
13.0236
13.8458
14.7147
15.6394
16.6273
17.6828
18.7972
19.7891
10.0033
10.6804
11.3725
12.0848
12.8297
13.6147
14.4529
15.3543
16.3318
17.3935
18.5353
19.5887
9.97228
10.6054
11.2487
11.9158
12.6125
13.3532
14.1482
15.0142
15.9662
17.0206
18.1809
19.2914
9.94325
10.5261
11.1215
11.7365
12.3818
13.0681
13.8101
14.6248
15.5347
16.5635
17.7228
18.8869
9.9133
10.4478
10.9924
11.5549
12.1434
12.7695
13.4467
14.1952
15.0406
16.016
17.1537
18.3522
9.88465
10.3712
10.866
11.3747
11.9046
12.4646
13.0679
13.7332
14.4894
15.3788
16.4482
17.6603
9.85756
10.2983
10.7447
11.2006
11.671
12.1621
12.6842
13.2524
13.8928
14.6495
15.5953
16.7616
9.83265
10.2304
10.6309
11.0361
11.4482
11.8706
12.3081
12.7696
13.2714
13.8483
14.57
15.5809
9.81007
10.1684
10.5265
10.8842
11.2413
11.5977
11.9528
12.3066
12.6584
13.0111
13.3851
13.9623
-0.451317
0.316166
1.32301
2.32102
3.29266
4.23522
5.1451
6.0273
6.88204
7.71734
8.5357
9.34655
-0.520181
0.343162
1.3819
2.3989
3.37928
4.32174
5.22622
6.09773
6.93945
7.75895
8.56099
9.35386
-0.504306
0.426803
1.50712
2.54702
3.53522
4.47344
5.36516
6.21737
7.03583
7.82884
8.60286
9.36639
-0.399565
0.593519
1.70873
2.76472
3.75293
4.67857
5.54875
6.37303
7.15954
7.91792
8.65584
9.38234
-0.205486
0.848009
1.99062
3.05258
4.02972
4.9318
5.77031
6.55761
7.30432
8.02108
8.71675
9.40048
0.0845614
1.1955
2.35527
3.40921
4.3613
5.22658
6.02272
6.76388
7.46406
8.13337
8.78266
9.41935
0.482629
1.64424
2.80403
3.83165
4.74018
5.5549
6.29658
6.98447
7.63144
8.25051
8.84957
9.43844
1.00579
2.20503
3.34011
4.31507
5.15926
5.90691
6.5842
7.21106
7.80174
8.36734
8.91629
9.45582
1.68895
2.89774
3.9678
4.85524
5.61016
6.27478
6.87792
7.43875
7.97036
8.48207
8.98085
9.47225
2.57472
3.74151
4.68483
5.44103
6.0805
6.64789
7.16984
7.66167
8.13361
8.59214
9.04224
9.4874
3.74469
4.75444
5.47666
6.05222
6.55326
7.01428
7.45185
7.87473
8.28823
8.69575
9.09961
9.50138
5.35317
5.93016
6.3034
6.6559
7.00716
7.36067
7.71595
8.07288
8.43116
8.79092
9.15195
9.51382
10.1531
10.9643
11.7841
12.6206
13.4772
14.36
15.2714
16.2141
17.1866
18.1839
19.1902
19.9563
10.1429
10.9362
11.7394
12.56
13.4034
14.2759
15.1818
16.1249
17.1065
18.1234
19.1617
20.0239
10.126
10.8899
11.6648
12.4589
13.2788
14.1321
15.0253
15.9646
16.9542
17.9946
19.0749
20.005
10.1047
10.8315
11.5702
12.3294
13.1172
13.9425
14.8143
15.7413
16.7313
17.7882
18.9036
19.8958
10.08
10.764
11.4602
12.1777
12.9254
13.7138
14.5539
15.4576
16.4366
17.4997
18.6427
19.6956
10.0529
10.6897
11.3392
12.0091
12.7099
13.4523
14.2498
15.1168
16.0705
17.1263
18.2864
19.3968
10.0229
10.6117
11.2108
11.8299
12.4774
13.1659
13.909
14.725
15.6357
16.6643
17.8251
18.9869
9.99217
10.5314
11.08
11.6452
12.2358
12.8628
13.5409
14.2894
15.1346
16.1109
17.2462
18.4443
9.96109
10.452
10.9499
11.4607
11.9915
12.5519
13.1548
13.8194
14.5747
15.4618
16.5315
17.7403
9.93079
10.3752
10.824
11.281
11.7514
12.242
12.7626
13.3289
13.9668
14.722
15.6633
16.8283
9.90215
10.3029
10.7051
11.1104
11.5217
11.9424
12.3776
12.8361
13.3345
13.9066
14.6253
15.6322
9.87561
10.2363
10.5952
10.9523
11.3077
11.6615
12.0136
12.3633
12.7103
13.0579
13.4252
13.9962
-0.638482
0.128365
1.13384
2.1304
3.10056
4.04181
4.95102
5.83295
6.68835
7.5248
8.34489
9.15732
-0.704937
0.157888
1.19546
2.21109
3.19009
4.13133
5.03501
5.90623
6.74841
7.56875
8.37207
9.16624
-0.685089
0.245562
1.3249
2.36357
3.35039
4.28743
5.1782
6.02997
6.84843
7.64197
8.41674
9.18128
-0.575243
0.417374
1.53176
2.58648
3.57339
4.49762
5.36674
6.1902
6.97645
7.73485
8.47322
9.2003
-0.37505
0.677994
1.81993
2.88047
3.85673
4.75667
5.59456
6.37993
7.1268
7.84231
8.53891
9.22192
-0.0771828
1.03355
2.19218
3.24591
4.19536
5.0604
5.85331
6.59461
7.29189
7.96208
8.6091
9.24733
0.33085
1.49262
2.65192
3.6785
4.58615
5.39818
6.13847
6.82351
7.46945
8.08615
8.68491
9.27225
0.870518
2.06847
3.20348
4.17661
5.01892
5.76396
6.43859
7.06254
7.65062
8.21373
8.76084
9.29896
1.57033
2.77929
3.84746
4.73336
5.48562
6.14708
6.74666
7.30382
7.83178
8.34012
8.83615
9.3255
2.47783
3.64268
4.58391
5.33659
5.97234
6.53579
7.05328
7.54063
8.0079
8.46223
8.9087
9.35125
3.66914
4.67629
5.39339
5.96458
6.46085
6.91691
7.34936
7.76689
8.17503
8.57748
8.97708
9.37571
5.30037
5.87122
6.23799
6.58366
6.92897
7.27668
7.6262
7.97715
8.3295
8.6836
9.03985
9.39828
9.96562
10.7785
11.5999
12.4376
13.2953
14.1789
15.0909
16.0339
17.0065
18.0039
19.0102
19.7765
9.95671
10.7514
11.5559
12.3777
13.222
14.0953
15.0017
15.9452
16.9269
17.9438
18.9822
19.8446
9.94188
10.7069
11.4828
12.2778
13.0985
13.9525
14.8461
15.7857
16.7754
17.8158
18.8963
19.8266
9.92337
10.6509
11.3903
12.1501
12.9385
13.7645
14.6365
15.5638
16.5539
17.6109
18.7264
19.7188
9.90275
10.5862
11.2835
12.0007
12.7494
13.5378
14.3788
15.2825
16.2618
17.3249
18.4677
19.5216
9.87916
10.5175
11.1658
11.8368
12.5372
13.2807
14.0783
14.9463
15.9
16.9556
18.1169
19.2279
9.85695
10.4448
11.0443
11.663
12.3114
13.0004
13.7447
14.5613
15.4727
16.5028
17.6629
18.8278
9.83437
10.3731
10.9215
11.4872
12.0785
12.707
13.3864
14.1366
14.9835
15.9601
17.0989
18.298
9.81306
10.3033
10.8014
11.3129
11.8453
12.4076
13.0128
13.6799
14.4375
15.3283
16.3985
17.6115
9.79303
10.2369
10.6862
11.1445
11.6173
12.1105
12.6344
13.2042
13.8462
14.6042
15.5513
16.7183
9.77468
10.1751
10.5781
10.9856
11.3997
11.824
12.2633
12.7265
13.2299
13.8085
14.5315
15.5435
9.75818
10.1187
10.479
10.8388
11.1977
11.5559
11.9127
12.2681
12.6217
12.9761
13.352
13.9308
7.82444
7.14943
7.07591
7.20357
7.41636
7.67274
7.95442
8.25227
8.5613
8.87862
9.20207
9.52941
8.75423
7.9599
7.68921
7.66844
7.77389
7.94907
8.16648
8.41126
8.67525
8.95337
9.24217
9.5381
9.11436
8.45394
8.13706
8.03902
8.07207
8.18538
8.35017
8.54972
8.77416
9.01748
9.2757
9.54483
9.28303
8.76148
8.45801
8.32693
8.31494
8.38325
8.50628
8.66794
8.85804
9.07055
9.30184
9.54875
9.85771
10.1836
10.5045
10.8185
11.1239
11.4177
11.6951
11.9468
12.1545
12.2761
12.1947
11.5081
9.83636
10.1307
10.4166
10.691
10.9507
11.1909
11.4031
11.5729
11.6722
11.6446
11.3653
10.5592
9.81832
10.0857
10.3408
10.58
10.7997
10.994
11.1532
11.2604
11.2868
11.1815
10.8561
10.1855
9.80398
10.0491
10.2771
10.4852
10.6702
10.8262
10.9432
11.005
10.9863
10.8478
10.5365
10.0064
7.85764
7.16938
7.08521
7.20453
7.40945
7.65831
7.93222
8.22189
8.52228
8.83094
9.14633
9.46689
8.78982
7.98259
7.70184
7.67146
7.76872
7.93629
8.14612
8.38302
8.63874
8.90858
9.18967
9.47919
9.14859
8.47738
8.15
8.04299
8.06777
8.17348
8.33091
8.52292
8.73957
8.97508
9.22607
9.48925
9.31447
8.78368
8.47116
8.3308
8.31061
8.37144
8.48733
8.64185
8.82466
9.02993
9.25454
9.49607
9.79016
10.113
10.4326
10.7468
11.0535
11.3494
11.6294
11.8842
12.0955
12.2215
12.145
11.4661
9.7729
10.0647
10.35
10.6252
10.8869
11.1296
11.3451
11.5184
11.6219
11.5987
11.3248
10.526
9.75861
10.024
10.279
10.5196
10.7417
10.9391
11.1017
11.2129
11.2436
11.1428
10.8223
10.1579
9.74771
9.99139
10.2197
10.4297
10.6175
10.7769
10.8976
10.9635
10.949
10.8149
10.5081
9.98314
7.83911
7.16034
7.08439
7.21012
7.42124
7.67611
7.95637
8.25288
8.56062
8.87666
9.19879
9.52479
8.76966
7.97183
7.69863
7.67582
7.77952
7.95311
8.16906
8.41246
8.67511
8.95189
9.23932
9.53384
9.12954
8.46622
8.14701
8.04698
8.07827
8.18999
8.35329
8.55143
8.77452
9.01648
9.27327
9.54092
9.29756
8.77373
8.4682
8.33525
8.32157
8.38831
8.50987
8.67013
8.85887
9.07
9.29983
9.5452
9.85175
10.1764
10.4961
10.809
11.1132
11.4059
11.682
11.9322
12.138
12.2571
12.1723
11.4795
9.8307
10.1237
10.4084
10.6818
10.9404
11.1794
11.3905
11.5588
11.6562
11.6262
11.3435
10.5321
9.81294
10.079
10.3329
10.571
10.7897
10.983
11.141
11.2469
11.2717
11.1642
10.8359
10.1613
9.79885
10.0426
10.2693
10.4765
10.6606
10.8157
10.9317
10.9924
10.9722
10.8319
10.5183
9.98526
7.812
7.11895
7.03285
7.15092
7.35516
7.60366
7.87765
8.16784
8.46924
8.77929
9.09634
9.41869
8.75384
7.94207
7.65876
7.62715
7.72342
7.89025
8.09965
8.33653
8.59268
8.86335
9.14561
9.43646
9.11909
8.44421
8.11481
8.00633
8.03003
8.13479
8.29148
8.48307
8.6997
8.93561
9.18734
9.45149
9.28987
8.75637
8.44199
8.30052
8.2793
8.33911
8.45407
8.60789
8.79035
8.99566
9.22067
9.46284
9.74382
10.0685
10.39
10.706
11.0144
11.3119
11.5935
11.85
12.063
12.191
12.1168
11.4415
9.73165
10.025
10.3119
10.5887
10.8519
11.0961
11.3131
11.488
11.5932
11.572
11.3005
10.505
9.72197
9.9886
10.2449
10.4869
10.7104
10.9091
11.0732
11.1858
11.2181
11.1192
10.8008
10.1392
9.71528
9.95996
10.1894
10.4006
10.5895
10.7501
10.8721
10.9393
10.9263
10.7938
10.4889
9.96605
9.37476
8.96115
8.68928
8.54887
8.51057
8.547
8.63748
8.76763
8.92794
9.11283
9.31992
9.54903
9.43056
9.0965
8.85824
8.72003
8.66718
8.6813
8.74648
8.85046
8.98474
9.14434
9.3286
9.5427
9.46729
9.19183
8.98382
8.85282
8.79253
8.79112
8.83658
8.91878
9.03008
9.16587
9.32642
9.52451
9.49289
9.26112
9.07869
8.9565
8.89292
8.8806
8.91059
8.97455
9.06548
9.17846
9.31234
9.48082
9.79455
10.0218
10.2254
10.4058
10.5607
10.6849
10.769
10.7989
10.7537
10.6063
10.3269
9.906
9.79246
10.0048
10.1855
10.3404
10.4691
10.567
10.6257
10.6332
10.5736
10.4285
10.1835
9.84302
9.8034
9.99964
10.1567
10.2877
10.3933
10.4693
10.5082
10.5002
10.4334
10.296
10.0815
9.80006
9.84035
10.0073
10.1376
10.2458
10.331
10.3887
10.4122
10.3934
10.3235
10.195
10.0067
9.76925
9.403
8.9815
8.70075
8.55188
8.50559
8.53472
8.6183
8.74171
8.89524
9.07349
9.27459
9.49895
9.45551
9.11438
8.86823
8.72156
8.66098
8.66798
8.72653
8.82413
8.95215
9.10573
9.28467
9.49455
9.48907
9.20712
8.99136
8.85259
8.78484
8.77652
8.8156
8.89175
8.99727
9.12761
9.28343
9.47823
9.51166
9.27373
9.08417
8.95426
8.88345
8.86445
8.88826
8.94649
9.03205
9.1401
9.26989
9.43563
9.74133
9.96757
10.1721
10.3546
10.5126
10.6404
10.7284
10.7623
10.7213
10.5779
10.3028
9.88636
9.74207
9.95389
10.1358
10.2932
10.4252
10.5267
10.5894
10.6009
10.5452
10.4041
10.1629
9.82653
9.7554
9.95166
10.1102
10.2439
10.3529
10.4327
10.4755
10.4714
10.4084
10.2746
10.0639
9.78642
9.79478
9.96208
10.0941
10.2051
10.2937
10.3552
10.3826
10.3676
10.3013
10.1764
9.9916
9.75811
9.38863
8.97317
8.69952
8.55741
8.51751
8.55242
8.64147
8.77025
8.92923
9.11275
9.31836
9.54583
9.44373
9.1082
8.86842
8.72868
8.67434
8.68702
8.75082
8.85348
8.98647
9.14473
9.32752
9.53993
9.47984
9.20319
8.99387
8.8615
8.79984
8.79707
8.84122
8.92216
9.03224
9.16676
9.32591
9.52224
9.50484
9.27212
9.08858
8.96517
8.90033
8.88675
8.91551
8.97828
9.06806
9.17987
9.31248
9.47939
9.78962
10.0154
10.2179
10.3972
10.5514
10.6748
10.7582
10.787
10.7407
10.5919
10.3108
9.88775
9.78763
9.99842
10.178
10.3321
10.4601
10.5574
10.6155
10.6222
10.5617
10.4157
10.1694
9.82734
9.79853
9.99321
10.1492
10.2795
10.3846
10.4602
10.4986
10.4901
10.4226
10.2845
10.0692
9.78666
9.83509
10.0006
10.1301
10.2377
10.3226
10.38
10.4031
10.384
10.3137
10.1848
9.99595
9.75783
9.38236
8.95881
8.67676
8.52686
8.47964
8.50776
8.59034
8.71287
8.86583
9.04385
9.24509
9.46983
9.43815
9.09552
8.84829
8.70097
8.63961
8.64568
8.7032
8.79982
8.92709
9.08025
9.25912
9.46908
9.47447
9.1914
8.97497
8.83565
8.76727
8.75812
8.7962
8.87134
8.976
9.10578
9.26135
9.45614
9.4994
9.26065
9.07058
8.94041
8.86914
8.84941
8.87229
8.92949
9.01413
9.1215
9.25093
9.41654
9.71267
9.93965
10.1451
10.3285
10.4876
10.6164
10.7056
10.7406
10.7009
10.5589
10.2854
9.87064
9.71688
9.92918
10.1118
10.27
10.4028
10.5053
10.5689
10.5814
10.5269
10.387
10.147
9.81191
9.73321
9.92977
10.0889
10.2232
10.3329
10.4134
10.4571
10.4539
10.3918
10.2589
10.0492
9.77278
9.77538
9.94274
10.0752
10.1866
10.2759
10.338
10.366
10.3517
10.2862
10.1621
9.97804
9.74529
9.51148
9.31276
9.15145
9.03807
8.97357
8.95353
8.97132
9.02
9.09301
9.18453
9.28869
9.38791
9.52536
9.35203
9.20794
9.10266
9.03849
9.0129
9.02101
9.0569
9.11443
9.18702
9.2661
9.33038
9.53596
9.38235
9.25221
9.15406
9.09086
9.06126
9.06164
9.08693
9.13136
9.18807
9.24769
9.29158
9.54416
9.40601
9.28713
9.19513
9.13311
9.10059
9.09478
9.11134
9.14486
9.18864
9.23359
9.26459
9.55059
9.42456
9.3148
9.22791
9.16718
9.13247
9.12177
9.13118
9.15582
9.18921
9.22318
9.24572
9.55559
9.43918
9.33666
9.2541
9.19449
9.15825
9.14358
9.1473
9.16466
9.18992
9.21562
9.2323
9.55951
9.45063
9.35387
9.27482
9.21621
9.17888
9.16105
9.16029
9.17185
9.1908
9.21027
9.22285
9.56253
9.4595
9.36727
9.29103
9.23329
9.19515
9.17489
9.1706
9.17762
9.1917
9.20652
9.21614
9.56477
9.4663
9.3774
9.30353
9.24623
9.20785
9.18539
9.17879
9.18204
9.19272
9.20394
9.21153
9.5665
9.4712
9.38502
9.31257
9.25609
9.21698
9.19353
9.18461
9.18562
9.19339
9.2023
9.20828
9.5677
9.47466
9.3903
9.31894
9.26291
9.22342
9.19916
9.18874
9.18811
9.19394
9.20124
9.20616
9.56832
9.47628
9.39273
9.32183
9.26602
9.22632
9.20175
9.19061
9.18931
9.19425
9.20086
9.20532
9.92776
10.0253
10.126
10.2127
10.28
10.3224
10.3337
10.3073
10.2367
10.1175
9.95028
9.74611
9.9805
10.043
10.1186
10.1864
10.2383
10.2679
10.2696
10.2378
10.1677
10.0567
9.90709
9.72843
10.0153
10.0573
10.1134
10.1654
10.2042
10.2233
10.2174
10.1817
10.1127
10.0091
9.8734
9.71451
10.0386
10.0678
10.1093
10.1484
10.1764
10.1868
10.1748
10.1362
10.0686
9.97116
9.84698
9.70358
10.0545
10.0752
10.1058
10.1346
10.1537
10.1571
10.1402
10.0996
10.0333
9.94115
9.826
9.6948
10.0654
10.0803
10.1027
10.1234
10.1353
10.133
10.1123
10.0701
10.0051
9.91706
9.80938
9.68786
10.0729
10.0837
10.1
10.1143
10.1206
10.1137
10.0901
10.0465
9.98277
9.89797
9.79615
9.68229
10.078
10.0859
10.0976
10.1071
10.109
10.0985
10.0725
10.028
9.96519
9.88289
9.78574
9.67794
10.0815
10.0872
10.0956
10.1014
10.1001
10.0866
10.0593
10.0136
9.95207
9.87095
9.7777
9.67461
10.0838
10.0881
10.094
10.0972
10.0933
10.0781
10.0491
10.0034
9.94173
9.86252
9.77165
9.67214
10.0852
10.0885
10.0929
10.0943
10.0886
10.0721
10.0421
9.99625
9.93466
9.85677
9.76763
9.67045
10.0858
10.0887
10.0923
10.0929
10.0866
10.0695
10.0391
9.9932
9.93158
9.8545
9.76608
9.66978
9.52743
9.3228
9.15442
9.03381
8.96234
8.93581
8.94763
8.99083
9.05884
9.14588
9.24641
9.34357
9.53876
9.35967
9.20881
9.09635
9.02543
8.99352
8.99582
9.02646
9.0793
9.14781
9.22369
9.2862
9.54705
9.38776
9.25088
9.14591
9.07611
9.04036
9.03508
9.0553
9.0953
9.14827
9.20501
9.24744
9.55322
9.40945
9.28403
9.18523
9.11674
9.07821
9.06684
9.0785
9.1078
9.14811
9.19049
9.22018
9.55785
9.42628
9.31
9.21655
9.14942
9.10881
9.09262
9.09727
9.11784
9.14803
9.17964
9.20108
9.56138
9.43944
9.3306
9.24149
9.1755
9.13338
9.11329
9.11231
9.12581
9.14802
9.17159
9.18727
9.56406
9.44969
9.34679
9.26139
9.19619
9.15305
9.12979
9.12438
9.13221
9.14824
9.16577
9.17751
9.56611
9.45768
9.35961
9.27697
9.21247
9.16848
9.14277
9.13386
9.13727
9.14853
9.1616
9.17047
9.56768
9.46381
9.36943
9.2894
9.22472
9.18057
9.15259
9.14128
9.14115
9.14894
9.15869
9.16558
9.56887
9.46839
9.37701
9.29811
9.2343
9.18919
9.16019
9.14663
9.1442
9.14928
9.15675
9.16216
9.56972
9.4717
9.3821
9.30423
9.24098
9.19536
9.16556
9.15053
9.14645
9.14969
9.15558
9.15998
9.57018
9.47326
9.38434
9.30697
9.24419
9.19832
9.16826
9.15255
9.14776
9.15016
9.15533
9.15925
9.88428
9.98252
10.0851
10.1746
10.2454
10.2916
10.3067
10.284
10.2169
10.101
9.93752
9.73728
9.93912
10.0025
10.0801
10.1508
10.2061
10.2394
10.2449
10.2167
10.15
10.0423
9.89622
9.72161
9.97568
10.0187
10.0769
10.1318
10.174
10.1968
10.1945
10.1623
10.0966
9.99627
9.86431
9.70954
10.0008
10.031
10.0746
10.1165
10.1479
10.1619
10.1535
10.1184
10.054
9.9599
9.83934
9.70019
10.0181
10.0398
10.0725
10.1041
10.1266
10.1335
10.1202
10.083
10.02
9.93108
9.81975
9.69284
10.0302
10.0462
10.0706
10.0941
10.1093
10.1106
10.0934
10.0546
9.99282
9.90828
9.80431
9.68711
10.0386
10.0505
10.0688
10.0859
10.0954
10.0922
10.0719
10.0321
9.97135
9.89031
9.79224
9.6826
10.0445
10.0534
10.0671
10.0794
10.0844
10.0777
10.055
10.0143
9.95456
9.87634
9.78286
9.67914
10.0485
10.0553
10.0655
10.0744
10.0758
10.0665
10.0419
10.0008
9.94174
9.86567
9.77573
9.67651
10.0512
10.0565
10.0644
10.0704
10.0695
10.0582
10.0324
9.99076
9.93227
9.85782
9.7705
9.6746
10.053
10.0573
10.0636
10.0677
10.0651
10.0523
10.0257
9.98379
9.92571
9.85242
9.76691
9.67328
10.0538
10.0576
10.0631
10.0664
10.0632
10.0497
10.0228
9.98071
9.92282
9.85009
9.76536
9.67274
9.52293
9.32343
9.16117
9.0467
8.98105
8.95983
8.97647
9.02404
9.09598
9.18645
9.28956
9.38782
9.53634
9.36238
9.21747
9.11123
9.04601
9.01933
9.02636
9.06121
9.11776
9.18943
9.26764
9.33128
9.54654
9.39241
9.26158
9.16256
9.09839
9.06779
9.06716
9.09148
9.13502
9.19091
9.24981
9.29321
9.55437
9.41581
9.29634
9.20356
9.14066
9.1072
9.10045
9.11611
9.14881
9.19185
9.2362
9.26682
9.5605
9.43414
9.32387
9.23627
9.17473
9.13914
9.12756
9.13613
9.16001
9.19274
9.22619
9.24841
9.56525
9.44855
9.3456
9.26238
9.20203
9.16496
9.14947
9.15239
9.16906
9.19371
9.21895
9.23537
9.56899
9.45981
9.36271
9.28302
9.22375
9.1856
9.16702
9.16549
9.17641
9.19479
9.21385
9.2262
9.57185
9.46854
9.37602
9.29916
9.2408
9.20188
9.18091
9.17588
9.18231
9.19585
9.2103
9.21971
9.57408
9.47517
9.38612
9.31154
9.25377
9.21453
9.19148
9.1841
9.18684
9.19697
9.20788
9.21525
9.57569
9.48004
9.39362
9.32058
9.26356
9.2237
9.19961
9.18999
9.19046
9.19773
9.20633
9.21213
9.57682
9.48347
9.39883
9.32692
9.27035
9.23015
9.20525
9.19416
9.193
9.19836
9.20534
9.21009
9.57737
9.48508
9.40122
9.32981
9.27344
9.23306
9.20784
9.19606
9.19421
9.19869
9.20499
9.20929
9.92155
10.0183
10.1184
10.2047
10.2718
10.314
10.3252
10.2987
10.2278
10.1084
9.94101
9.73643
9.97364
10.0358
10.1109
10.1785
10.2303
10.2599
10.2616
10.2298
10.1597
10.0487
9.89908
9.72023
10.008
10.0498
10.1057
10.1575
10.1964
10.2156
10.2098
10.1742
10.1054
10.002
9.86648
9.70759
10.031
10.0601
10.1015
10.1406
10.1687
10.1794
10.1676
10.1293
10.0619
9.9648
9.84098
9.69773
10.0467
10.0673
10.0979
10.1268
10.1462
10.1499
10.1333
10.0931
10.0271
9.93544
9.82079
9.68986
10.0574
10.0723
10.0947
10.1156
10.1279
10.126
10.1057
10.0639
9.99935
9.91191
9.80483
9.68365
10.0647
10.0756
10.092
10.1066
10.1133
10.1068
10.0837
10.0407
9.9774
9.89329
9.79213
9.67867
10.0698
10.0777
10.0896
10.0993
10.1017
10.0917
10.0663
10.0224
9.96011
9.87859
9.78214
9.67477
10.0732
10.079
10.0876
10.0937
10.0929
10.08
10.0532
10.0082
9.9472
9.86698
9.77443
9.67177
10.0754
10.0798
10.086
10.0896
10.0861
10.0715
10.0431
9.99812
9.93706
9.85877
9.76862
9.66951
10.0769
10.0803
10.0849
10.0866
10.0815
10.0656
10.0362
9.99103
9.93012
9.85313
9.76471
9.66793
10.0774
10.0804
10.0843
10.0853
10.0794
10.063
10.0332
9.98799
9.92708
9.85086
9.76313
9.66725
9.51717
9.31194
9.14332
9.02254
8.95074
8.92358
8.93454
8.97673
9.04379
9.13008
9.23015
9.32713
9.53019
9.35068
9.19968
9.08726
9.01613
8.9837
8.98521
9.01487
9.06675
9.13446
9.2098
9.27203
9.53991
9.38033
9.24349
9.13861
9.06871
9.03253
9.02653
9.04583
9.08487
9.13701
9.19317
9.23527
9.54727
9.40332
9.278
9.17944
9.11094
9.07206
9.06004
9.07082
9.09919
9.13866
9.18043
9.20976
9.5529
9.42122
9.30515
9.21199
9.14492
9.10403
9.08726
9.09108
9.11075
9.1401
9.17109
9.19214
9.55723
9.43525
9.32666
9.23794
9.17207
9.12974
9.10913
9.10736
9.11998
9.14137
9.16431
9.17959
9.56055
9.44619
9.34361
9.25861
9.19363
9.1503
9.12659
9.12041
9.12742
9.14262
9.15953
9.17085
9.56309
9.45471
9.35697
9.27481
9.21057
9.16645
9.14033
9.13068
9.1333
9.14374
9.15619
9.16463
9.56501
9.46122
9.36718
9.28764
9.22333
9.17905
9.15073
9.13868
9.13781
9.14477
9.15391
9.16035
9.56642
9.46605
9.37502
9.29667
9.23323
9.18806
9.15872
9.14447
9.14131
9.14558
9.15242
9.15739
9.56741
9.46952
9.38029
9.30297
9.24009
9.19443
9.16431
9.14863
9.14383
9.14628
9.15153
9.1555
9.56788
9.47112
9.38258
9.30571
9.24327
9.19738
9.16698
9.15066
9.14515
9.14679
9.15133
9.15485
9.86704
9.96533
10.0682
10.1581
10.2293
10.276
10.2917
10.2696
10.2031
10.0878
9.92486
9.72519
9.92376
9.98724
10.065
10.136
10.1916
10.2254
10.2312
10.2035
10.1373
10.0301
9.88438
9.71013
9.96189
10.005
10.0633
10.1184
10.1609
10.1839
10.182
10.1502
10.0849
9.98483
9.85312
9.69862
9.98837
10.0186
10.0623
10.1044
10.1359
10.1502
10.142
10.1072
10.0431
9.94915
9.82875
9.68973
10.0068
10.0286
10.0614
10.0931
10.1156
10.1227
10.1096
10.0726
10.0097
9.92091
9.80964
9.68279
10.0199
10.0359
10.0604
10.0839
10.0992
10.1006
10.0834
10.0448
9.98306
9.8986
9.79463
9.67738
10.0291
10.041
10.0593
10.0765
10.086
10.0828
10.0625
10.0227
9.96203
9.88106
9.7829
9.67313
10.0356
10.0445
10.0582
10.0705
10.0755
10.0687
10.046
10.0054
9.94558
9.86742
9.77379
9.66985
10.04
10.0469
10.0571
10.0659
10.0672
10.058
10.0333
9.99224
9.93299
9.85707
9.76687
9.66735
10.0431
10.0484
10.0563
10.0623
10.0613
10.0499
10.024
9.98236
9.92377
9.8494
9.7618
9.66549
10.0451
10.0494
10.0556
10.0597
10.0571
10.0442
10.0175
9.97552
9.91735
9.84409
9.75828
9.66425
10.0459
10.0497
10.0552
10.0584
10.0551
10.0416
10.0146
9.97245
9.91449
9.84172
9.75672
9.66374
)
;

boundaryField
{
    rotor
    {
        type            zeroGradient;
    }
    stator
    {
        type            zeroGradient;
    }
    front
    {
        type            empty;
    }
    back
    {
        type            empty;
    }
}


// ************************************************************************* //
