/*--------------------------------*- C++ -*----------------------------------*\
  =========                 |
  \\      /  F ield         | OpenFOAM: The Open Source CFD Toolbox
   \\    /   O peration     | Website:  https://openfoam.org
    \\  /    A nd           | Version:  6
     \\/     M anipulation  |
\*---------------------------------------------------------------------------*/
FoamFile
{
    version     2.0;
    format      ascii;
    class       volScalarField;
    location    "500";
    object      k;
}
// * * * * * * * * * * * * * * * * * * * * * * * * * * * * * * * * * * * * * //

dimensions      [0 2 -2 0 0 0 0];

internalField   nonuniform List<scalar> 
768
(
0.902027
0.944056
0.953854
0.956153
0.956733
0.956858
0.956935
0.956945
0.956964
0.956967
0.957002
0.956994
0.911367
0.963377
0.98168
0.986934
0.988318
0.988651
0.988751
0.988753
0.98875
0.988751
0.988796
0.988815
0.911252
0.966607
0.986778
0.992726
0.994329
0.994723
0.994813
0.994823
0.994834
0.994837
0.994846
0.994847
0.910638
0.967365
0.987633
0.993459
0.99498
0.99534
0.995444
0.995447
0.995468
0.995484
0.995478
0.99548
0.910151
0.967785
0.987843
0.993409
0.994797
0.995088
0.995132
0.995135
0.995145
0.995159
0.995199
0.99523
0.910265
0.968539
0.98806
0.993224
0.994415
0.994688
0.994732
0.994754
0.994757
0.994795
0.994774
0.994817
0.910793
0.969566
0.98812
0.993002
0.994094
0.994287
0.994345
0.994319
0.994391
0.994426
0.994401
0.994397
0.911761
0.970579
0.988351
0.99286
0.993799
0.994026
0.993981
0.993923
0.994029
0.99409
0.994089
0.99403
0.912855
0.971289
0.988484
0.992731
0.993517
0.993669
0.993649
0.993651
0.993744
0.993683
0.993709
0.993764
0.914294
0.971809
0.988718
0.99258
0.993346
0.993401
0.993273
0.993291
0.993391
0.993353
0.993371
0.993442
0.915983
0.973182
0.988819
0.99251
0.993228
0.993238
0.993093
0.993089
0.99316
0.993048
0.992964
0.992981
0.92747
0.977416
0.989806
0.992463
0.993036
0.992928
0.992744
0.992692
0.992664
0.992693
0.992816
0.992883
0.95701
0.956992
0.957005
0.956985
0.95701
0.956954
0.956929
0.956923
0.956892
0.956799
0.945352
0.897634
0.988789
0.988747
0.988748
0.988772
0.988806
0.988794
0.988767
0.98875
0.9885
0.985572
0.966144
0.909444
0.994847
0.994843
0.994862
0.994842
0.994824
0.994821
0.994827
0.994844
0.994537
0.991036
0.970124
0.910217
0.995479
0.995459
0.995465
0.995463
0.995467
0.995489
0.995516
0.995514
0.995219
0.991818
0.971091
0.90982
0.995217
0.995214
0.995227
0.995228
0.995222
0.995214
0.995244
0.99525
0.994991
0.991874
0.971912
0.91
0.994845
0.994838
0.994834
0.994844
0.994802
0.994828
0.994859
0.994921
0.994686
0.991755
0.972549
0.910188
0.994473
0.994469
0.994455
0.994458
0.994458
0.994485
0.994489
0.9945
0.994333
0.991797
0.973627
0.911098
0.993974
0.993994
0.994071
0.994091
0.994036
0.994132
0.994131
0.994119
0.993996
0.991666
0.974843
0.913028
0.993686
0.993702
0.993798
0.993766
0.993755
0.993845
0.993783
0.993737
0.993688
0.991654
0.97609
0.914768
0.993364
0.993311
0.993436
0.993501
0.993427
0.993462
0.99344
0.99342
0.9935
0.991773
0.976624
0.916183
0.993076
0.993158
0.993189
0.993088
0.993029
0.993171
0.993256
0.993225
0.993168
0.991809
0.978946
0.919023
0.992769
0.992695
0.992693
0.992683
0.99279
0.992958
0.992874
0.992868
0.992913
0.991934
0.982602
0.929487
0.976268
0.988615
0.99181
0.992567
0.992712
0.992781
0.992567
0.992407
0.992369
0.99256
0.992659
0.992518
0.99017
0.99175
0.992338
0.992556
0.992466
0.992429
0.992318
0.992139
0.992116
0.992308
0.992317
0.992146
0.992514
0.992495
0.99241
0.992336
0.992412
0.992208
0.991974
0.991924
0.991926
0.991949
0.992068
0.992033
0.992233
0.992243
0.992296
0.992053
0.992089
0.992155
0.99192
0.991917
0.992027
0.99187
0.991728
0.991872
0.992383
0.99253
0.992523
0.992427
0.992402
0.992553
0.992547
0.992714
0.992781
0.992463
0.989436
0.969784
0.992099
0.992319
0.992439
0.99242
0.99228
0.992211
0.992239
0.99246
0.992611
0.992661
0.99186
0.988279
0.991891
0.992063
0.99206
0.991939
0.992099
0.992273
0.992332
0.992164
0.992087
0.992301
0.99235
0.991605
0.991823
0.991708
0.991697
0.991689
0.991888
0.992081
0.992151
0.991948
0.991975
0.99215
0.992046
0.991993
0.991951
0.991814
0.991742
0.991696
0.991691
0.991682
0.991608
0.991608
0.991602
0.991579
0.991564
0.991577
0.991702
0.991542
0.991502
0.991471
0.991482
0.99145
0.991421
0.991404
0.991385
0.991377
0.99137
0.991122
0.991496
0.991319
0.991291
0.991255
0.991282
0.991252
0.991239
0.991219
0.991226
0.991217
0.990954
0.988123
0.991318
0.991109
0.991079
0.991088
0.991093
0.991065
0.991072
0.991051
0.991063
0.990979
0.989092
0.973699
0.991573
0.991546
0.991545
0.991544
0.991554
0.99162
0.991651
0.991622
0.991573
0.991619
0.991678
0.991663
0.991047
0.991284
0.991344
0.991362
0.991342
0.991391
0.99138
0.991405
0.991367
0.99138
0.991426
0.99145
0.987698
0.990494
0.991079
0.991169
0.991164
0.991203
0.991191
0.991222
0.991196
0.991197
0.991215
0.991239
0.972941
0.98789
0.990632
0.990972
0.991
0.991023
0.991024
0.991054
0.991036
0.991039
0.991043
0.991066
0.991167
0.990951
0.990938
0.990934
0.990934
0.990911
0.990918
0.990903
0.990905
0.990566
0.984575
0.935627
0.991008
0.990796
0.9908
0.990783
0.990789
0.99078
0.990776
0.990767
0.99076
0.990322
0.983229
0.928864
0.990875
0.990668
0.990657
0.99065
0.99065
0.990646
0.990643
0.99064
0.990621
0.990184
0.983143
0.928555
0.990762
0.990548
0.990525
0.990529
0.990531
0.990516
0.990521
0.990519
0.990506
0.990099
0.983397
0.929598
0.990627
0.990428
0.990412
0.990416
0.990415
0.990405
0.990406
0.990404
0.990391
0.990029
0.983737
0.930875
0.990516
0.990311
0.990301
0.990308
0.990312
0.990298
0.990303
0.9903
0.99029
0.989964
0.984071
0.932142
0.99042
0.990214
0.990198
0.990208
0.990218
0.990206
0.990206
0.990202
0.990196
0.989903
0.984378
0.933383
0.990329
0.990126
0.990108
0.990114
0.990122
0.990115
0.990113
0.990112
0.990106
0.989846
0.984664
0.934618
0.989405
0.989088
0.989081
0.989069
0.989098
0.989061
0.989091
0.989056
0.989079
0.988824
0.983988
0.93574
0.98139
0.980584
0.980525
0.980528
0.980539
0.980529
0.980524
0.980516
0.980525
0.980318
0.976185
0.936472
0.940287
0.937728
0.937575
0.937544
0.937543
0.937529
0.9375
0.937496
0.937501
0.937377
0.935269
0.911262
0.84221
0.840813
0.840761
0.840613
0.840584
0.840557
0.840474
0.840429
0.840438
0.840385
0.838949
0.82388
0.935703
0.983227
0.990047
0.990786
0.990847
0.990859
0.990862
0.990899
0.990879
0.990866
0.990898
0.99091
0.929369
0.981825
0.989761
0.990642
0.990717
0.990736
0.990745
0.990765
0.990742
0.99074
0.990753
0.99078
0.929069
0.981768
0.989646
0.990512
0.99059
0.990611
0.990631
0.990635
0.990622
0.99061
0.990622
0.990657
0.93002
0.98207
0.989601
0.990406
0.990477
0.990497
0.990517
0.990519
0.990505
0.990507
0.990505
0.990538
0.931237
0.982461
0.989575
0.990309
0.99037
0.990385
0.990401
0.990404
0.990389
0.990372
0.990385
0.990424
0.93245
0.98285
0.989554
0.990219
0.990277
0.990283
0.990294
0.990306
0.990289
0.990286
0.990286
0.99032
0.933678
0.983221
0.989533
0.990131
0.990185
0.990193
0.990189
0.990206
0.990188
0.990199
0.990196
0.990218
0.934889
0.983569
0.989512
0.990048
0.990098
0.990107
0.990105
0.990112
0.990111
0.990113
0.990109
0.990126
0.936066
0.983079
0.988546
0.989027
0.989053
0.989086
0.989054
0.989101
0.989041
0.989107
0.989073
0.98909
0.937074
0.975886
0.980138
0.980497
0.980534
0.980551
0.980548
0.980558
0.980534
0.980586
0.980581
0.980582
0.914048
0.935015
0.937296
0.937499
0.937531
0.937579
0.937557
0.937578
0.937599
0.937623
0.937632
0.93766
0.825515
0.839078
0.840325
0.84043
0.840483
0.840534
0.840545
0.840566
0.840706
0.84069
0.840747
0.841025
)
;

boundaryField
{
    rotor
    {
        type            kqRWallFunction;
        value           nonuniform List<scalar> 
48
(
0.902027
0.944056
0.953854
0.956153
0.956733
0.956858
0.956935
0.956945
0.956964
0.956967
0.957002
0.956994
0.95701
0.956992
0.957005
0.956985
0.95701
0.956954
0.956929
0.956923
0.956892
0.956799
0.945352
0.897634
0.902027
0.911367
0.911252
0.910638
0.910151
0.910265
0.910793
0.911761
0.912855
0.914294
0.915983
0.92747
0.897634
0.909444
0.910217
0.90982
0.91
0.910188
0.911098
0.913028
0.914768
0.916183
0.919023
0.929487
)
;
    }
    stator
    {
        type            kqRWallFunction;
        value           nonuniform List<scalar> 
48
(
0.84221
0.840813
0.840761
0.840613
0.840584
0.840557
0.840474
0.840429
0.840438
0.840385
0.838949
0.82388
0.825515
0.839078
0.840325
0.84043
0.840483
0.840534
0.840545
0.840566
0.840706
0.84069
0.840747
0.841025
0.935703
0.929369
0.929069
0.93002
0.931237
0.93245
0.933678
0.934889
0.936066
0.937074
0.914048
0.825515
0.935627
0.928864
0.928555
0.929598
0.930875
0.932142
0.933383
0.934618
0.93574
0.936472
0.911262
0.82388
)
;
    }
    front
    {
        type            empty;
    }
    back
    {
        type            empty;
    }
    procBoundary1to0
    {
        type            processor;
        value           nonuniform List<scalar> 
20
(
0.976349
0.990345
0.992355
0.992187
0.991966
0.991705
0.991516
0.991351
0.991183
0.991021
0.990874
0.990745
0.990628
0.990526
0.990432
0.990335
0.989408
0.981417
0.940379
0.842391
)
;
    }
    procBoundary1to3
    {
        type            processor;
        value           nonuniform List<scalar> 
20
(
0.96923
0.988223
0.991368
0.991954
0.991659
0.991448
0.991227
0.991063
0.990903
0.990773
0.990645
0.990526
0.990415
0.990306
0.990211
0.990122
0.989086
0.980575
0.937612
0.84086
)
;
    }
}


// ************************************************************************* //
