/*--------------------------------*- C++ -*----------------------------------*\
  =========                 |
  \\      /  F ield         | OpenFOAM: The Open Source CFD Toolbox
   \\    /   O peration     | Website:  https://openfoam.org
    \\  /    A nd           | Version:  6
     \\/     M anipulation  |
\*---------------------------------------------------------------------------*/
FoamFile
{
    version     2.0;
    format      ascii;
    class       volScalarField;
    location    "500";
    object      nut;
}
// * * * * * * * * * * * * * * * * * * * * * * * * * * * * * * * * * * * * * //

dimensions      [0 2 -1 0 0 0 0];

internalField   nonuniform List<scalar> 
768
(
0.000127119
0.000254947
0.000260267
0.000261523
0.00026184
0.000261909
0.000261951
0.000261957
0.000261967
0.000261968
0.000261988
0.000261983
0.000144999
0.000593454
0.0013006
0.00168143
0.00178443
0.00180483
0.00180874
0.00180928
0.00180915
0.00180941
0.00180886
0.00180864
0.000160195
0.000745041
0.00214045
0.00335259
0.00377773
0.00387649
0.00389522
0.00389827
0.00389821
0.00389728
0.00389951
0.00389838
0.000175193
0.000845101
0.00245927
0.00384021
0.00430053
0.00440453
0.00442504
0.00442908
0.00442955
0.00442977
0.00442973
0.00442972
0.000190205
0.000941505
0.00267459
0.00399165
0.00439514
0.00448013
0.00449661
0.00449968
0.00450046
0.00450026
0.00450023
0.0045008
0.000205457
0.00104101
0.00285945
0.00408402
0.00442775
0.00449444
0.00450747
0.00450977
0.00451041
0.00451091
0.00451067
0.00451039
0.000220919
0.00114359
0.00301834
0.00416455
0.00444619
0.004501
0.0045111
0.00451278
0.00451329
0.00451279
0.00451167
0.00451234
0.000236645
0.00124772
0.0031769
0.00421848
0.0044594
0.00450393
0.00451158
0.00451343
0.00451377
0.00451407
0.00451367
0.0045133
0.000252507
0.00134954
0.00329382
0.00426792
0.00447009
0.00450803
0.00451278
0.00451424
0.00451575
0.0045153
0.00451427
0.00451373
0.000268646
0.00144459
0.00340153
0.00429013
0.00447663
0.00450963
0.00451431
0.00451497
0.00451456
0.00451502
0.00451624
0.00451542
0.00028504
0.00151913
0.00347154
0.00430523
0.0044835
0.00450893
0.00451406
0.00451501
0.00451421
0.00451514
0.00451606
0.00451596
0.000308023
0.0016552
0.00361617
0.00434918
0.00448832
0.00450941
0.00451348
0.00451596
0.00451416
0.0045147
0.00451561
0.00451541
0.000261992
0.000261982
0.000261989
0.000261978
0.000261992
0.000261961
0.000261947
0.000261944
0.000261927
0.000261876
0.000255648
0.000125884
0.00180759
0.00180629
0.00180519
0.00180423
0.00180348
0.00180287
0.00180255
0.0018027
0.00180251
0.00135737
0.000593824
0.000144387
0.00389446
0.00389284
0.00389268
0.00388874
0.00388449
0.00388503
0.003886
0.00388662
0.00388332
0.00234446
0.000753411
0.000159831
0.00442906
0.00442828
0.00442769
0.00442662
0.00442652
0.00442649
0.00442649
0.00442582
0.00442325
0.00272653
0.000859159
0.000174878
0.00450089
0.00450082
0.00450065
0.00450012
0.00449956
0.0044997
0.00449998
0.00449983
0.0044974
0.00296311
0.000961879
0.000190142
0.00451079
0.00451092
0.00451039
0.00451041
0.00451041
0.00451011
0.00451007
0.00450984
0.00450813
0.00315229
0.00106844
0.000205422
0.00451285
0.004513
0.00451305
0.00451336
0.00451314
0.00451207
0.00451158
0.00451155
0.00451044
0.00334712
0.00118203
0.000221067
0.00451372
0.00451369
0.00451327
0.00451368
0.00451376
0.00451311
0.00451252
0.00451172
0.00451112
0.00349433
0.00130179
0.000237303
0.00451388
0.00451383
0.00451374
0.00451417
0.00451407
0.00451358
0.00451414
0.00451347
0.00451213
0.00364634
0.00142871
0.000253566
0.0045134
0.00451376
0.00451567
0.00451541
0.00451483
0.00451461
0.00451473
0.00451457
0.00451526
0.0037661
0.00156045
0.000269757
0.0045151
0.00451461
0.00451478
0.00451533
0.00451585
0.00451545
0.00451472
0.00451503
0.0045158
0.00387996
0.00170585
0.000286935
0.004516
0.00451636
0.00451652
0.00451603
0.0045154
0.00451521
0.00451592
0.00451661
0.00451712
0.00398298
0.0019544
0.000309364
0.00146241
0.00310846
0.00412208
0.00444376
0.00450096
0.00451266
0.00451549
0.00451632
0.00451606
0.00451623
0.00451598
0.00451615
0.00332691
0.00408112
0.00439392
0.00449259
0.0045101
0.0045148
0.00451779
0.0045146
0.00451314
0.00451706
0.00451914
0.00451528
0.00425294
0.00441049
0.00448537
0.0045127
0.00451923
0.00451653
0.00451574
0.0045148
0.00451505
0.00451812
0.00451973
0.00451708
0.004462
0.00449269
0.00451101
0.00451561
0.00451809
0.00451871
0.00451736
0.00451697
0.00451641
0.00451775
0.00451658
0.00451822
0.0045166
0.00451648
0.00451643
0.00451487
0.00451331
0.00451629
0.00451856
0.00451927
0.00452015
0.00435915
0.00322613
0.00117569
0.00451355
0.00451694
0.00451752
0.00451806
0.00451823
0.00451809
0.0045179
0.00451781
0.00451986
0.00447815
0.004137
0.00293873
0.004516
0.00451724
0.0045154
0.00451655
0.00451741
0.0045173
0.00451659
0.00451744
0.00451929
0.00451255
0.00443307
0.00413475
0.00451998
0.00451897
0.00451856
0.00451883
0.00451798
0.0045196
0.00451873
0.00451802
0.00452082
0.00451826
0.00450102
0.00444559
0.00450758
0.00451415
0.00451713
0.0045182
0.00451884
0.00451897
0.00451861
0.00451875
0.00451843
0.00451876
0.00451871
0.00451926
0.00451686
0.00451853
0.00451965
0.00451939
0.0045193
0.00451954
0.00451947
0.00451933
0.0045191
0.00451918
0.0045195
0.00451751
0.00451909
0.0045196
0.00451988
0.00451974
0.00451972
0.00451997
0.00451993
0.00451983
0.00451995
0.00452002
0.00451769
0.00353404
0.00451981
0.00452027
0.00451983
0.00452046
0.00452029
0.0045204
0.00452057
0.00452029
0.00452048
0.00451988
0.0038571
0.00166582
0.00451975
0.00451933
0.00451924
0.00451924
0.00451872
0.00451925
0.00451899
0.00451889
0.00451911
0.0045189
0.00451512
0.00450533
0.00451679
0.00451897
0.00451944
0.00451965
0.0045194
0.00451982
0.00451959
0.00451979
0.00451962
0.00451925
0.00451889
0.00451679
0.00342392
0.00435971
0.00450545
0.00451881
0.00451992
0.00452044
0.00451997
0.00452019
0.00452032
0.00451988
0.00452003
0.0045191
0.00164136
0.00379799
0.00444702
0.00451435
0.00451978
0.00452055
0.00452008
0.00452032
0.0045204
0.00452031
0.00452037
0.00452007
0.00452014
0.00452074
0.0045205
0.00452089
0.00452071
0.00452055
0.00452093
0.00452077
0.00452076
0.00441289
0.00286851
0.000458087
0.0045204
0.0045209
0.00452117
0.00452117
0.00452099
0.0045208
0.00452124
0.0045211
0.00452099
0.00438964
0.00280905
0.000467327
0.00452082
0.0045212
0.00452137
0.00452138
0.00452127
0.00452112
0.00452149
0.00452137
0.00452126
0.00439658
0.00287213
0.000482844
0.00452107
0.00452164
0.00452179
0.00452167
0.00452147
0.0045215
0.00452165
0.00452164
0.00452156
0.00441016
0.00295527
0.000499794
0.00452145
0.00452203
0.00452207
0.00452189
0.00452172
0.00452191
0.00452191
0.00452194
0.00452185
0.00442366
0.00303896
0.000517074
0.00452171
0.0045222
0.00452212
0.00452212
0.00452207
0.0045222
0.00452217
0.00452217
0.00452211
0.00443571
0.00311921
0.000534434
0.00452195
0.00452243
0.00452235
0.00452235
0.0045223
0.00452245
0.0045224
0.00452239
0.00452234
0.00444623
0.00319537
0.000551851
0.00452228
0.00452265
0.00452256
0.00452259
0.00452254
0.00452266
0.00452265
0.0045226
0.00452257
0.00445535
0.00326749
0.000569349
0.00451484
0.00451417
0.00451405
0.00451408
0.00451404
0.00451411
0.00451409
0.00451408
0.00451406
0.00445466
0.00332933
0.000586791
0.00262295
0.0025476
0.00254312
0.00254256
0.00254337
0.0025426
0.00254301
0.00254293
0.00254369
0.00252657
0.00213383
0.000603809
0.000875047
0.000866928
0.000866189
0.000865915
0.000865782
0.000865668
0.000865594
0.000865649
0.000865786
0.000863883
0.000837662
0.000586981
0.000198165
0.000197508
0.000197483
0.000197414
0.0001974
0.000197388
0.000197349
0.000197327
0.000197332
0.000197307
0.000196633
0.000189633
0.000458162
0.00287723
0.00434724
0.00450825
0.00451978
0.0045206
0.00452057
0.00452087
0.00452075
0.0045205
0.00452095
0.00452045
0.000467836
0.00281847
0.00432982
0.0045069
0.00452006
0.00452102
0.00452126
0.00452121
0.00452107
0.00452089
0.00452129
0.00452094
0.000483378
0.00287712
0.00434168
0.0045081
0.00452035
0.00452144
0.00452148
0.00452126
0.00452128
0.00452134
0.00452152
0.00452144
0.000500247
0.0029559
0.00436038
0.00451012
0.00452082
0.0045216
0.0045216
0.00452159
0.00452162
0.0045217
0.00452171
0.00452158
0.000517477
0.0030371
0.00437815
0.00451204
0.00452129
0.00452174
0.00452186
0.00452202
0.00452193
0.00452187
0.00452187
0.00452185
0.000534787
0.00311528
0.0043947
0.00451384
0.00452172
0.00452197
0.00452216
0.00452239
0.00452224
0.00452214
0.00452212
0.00452207
0.0005522
0.00319024
0.00440918
0.00451535
0.00452207
0.00452227
0.00452242
0.00452249
0.00452249
0.00452235
0.00452236
0.00452234
0.000569679
0.00326165
0.00442191
0.00451661
0.00452234
0.00452258
0.00452263
0.00452256
0.00452264
0.00452262
0.00452263
0.00452256
0.0005872
0.00332395
0.00442468
0.00450901
0.00451388
0.00451415
0.00451412
0.00451407
0.00451409
0.00451406
0.00451408
0.00451406
0.000604586
0.0021848
0.00252159
0.00254392
0.00254554
0.00254643
0.00254676
0.0025469
0.00254624
0.00254769
0.00254783
0.00254613
0.000590577
0.000840521
0.000864453
0.000866214
0.000866353
0.000866584
0.000866682
0.000866837
0.000866969
0.000867095
0.000867128
0.000867782
0.000190386
0.000196694
0.000197279
0.000197328
0.000197353
0.000197377
0.000197382
0.000197392
0.000197458
0.00019745
0.000197477
0.000197607
)
;

boundaryField
{
    rotor
    {
        type            nutkWallFunction;
        Cmu             0.09;
        kappa           0.41;
        E               9.8;
        value           nonuniform List<scalar> 
48
(
1.5273e-05
3.27681e-05
3.29554e-05
3.29991e-05
3.30102e-05
3.30126e-05
3.3014e-05
3.30142e-05
3.30146e-05
3.30146e-05
3.30153e-05
3.30151e-05
3.30155e-05
3.30151e-05
3.30154e-05
3.3015e-05
3.30155e-05
3.30144e-05
3.30139e-05
3.30138e-05
3.30132e-05
3.30114e-05
3.2793e-05
1.52218e-05
1.5273e-05
1.7835e-05
2.02533e-05
2.2634e-05
2.49887e-05
2.73285e-05
2.96542e-05
3.19695e-05
3.4271e-05
3.65652e-05
3.88521e-05
4.13592e-05
1.52218e-05
1.78105e-05
2.0239e-05
2.26217e-05
2.49862e-05
2.73271e-05
2.96598e-05
3.19942e-05
3.43103e-05
3.66059e-05
3.89209e-05
4.14067e-05
)
;
    }
    stator
    {
        type            nutkWallFunction;
        Cmu             0.09;
        kappa           0.41;
        E               9.8;
        value           nonuniform List<scalar> 
48
(
2.99476e-05
2.99196e-05
2.99185e-05
2.99156e-05
2.9915e-05
2.99145e-05
2.99128e-05
2.99119e-05
2.99121e-05
2.9911e-05
2.98822e-05
2.95783e-05
2.96114e-05
2.98848e-05
2.99098e-05
2.99119e-05
2.9913e-05
2.9914e-05
2.99142e-05
2.99147e-05
2.99175e-05
2.99171e-05
2.99183e-05
2.99238e-05
6.13111e-05
6.32417e-05
6.53612e-05
6.75168e-05
6.96763e-05
7.18305e-05
7.39805e-05
7.61251e-05
7.82639e-05
8.03915e-05
8.14823e-05
2.96114e-05
6.13086e-05
6.32246e-05
6.53433e-05
6.75017e-05
6.9663e-05
7.18189e-05
7.3969e-05
7.61143e-05
7.82507e-05
8.03664e-05
8.13616e-05
2.95783e-05
)
;
    }
    front
    {
        type            empty;
    }
    back
    {
        type            empty;
    }
    procBoundary1to0
    {
        type            processor;
        value           nonuniform List<scalar> 
20
(
0.00146353
0.00338503
0.00424583
0.00446339
0.0045078
0.00451697
0.00451919
0.00451965
0.00452023
0.00452047
0.00452071
0.00452114
0.00452143
0.00452166
0.00452195
0.00452219
0.00451482
0.00262542
0.000875326
0.00019825
)
;
    }
    procBoundary1to3
    {
        type            processor;
        value           nonuniform List<scalar> 
20
(
0.00117808
0.00299817
0.004138
0.00444625
0.00450523
0.00451695
0.00451956
0.00452029
0.00452074
0.00452089
0.0045213
0.00452162
0.00452199
0.00452215
0.00452236
0.00452258
0.0045141
0.00254581
0.000867647
0.00019753
)
;
    }
}


// ************************************************************************* //
