/*--------------------------------*- C++ -*----------------------------------*\
  =========                 |
  \\      /  F ield         | OpenFOAM: The Open Source CFD Toolbox
   \\    /   O peration     | Website:  https://openfoam.org
    \\  /    A nd           | Version:  6
     \\/     M anipulation  |
\*---------------------------------------------------------------------------*/
FoamFile
{
    version     2.0;
    format      ascii;
    class       volVectorField;
    location    "500";
    object      U;
}
// * * * * * * * * * * * * * * * * * * * * * * * * * * * * * * * * * * * * * //

dimensions      [0 1 -1 0 0 0 0];

internalField   nonuniform List<vector> 
768
(
(0.0149627 0.0289037 0)
(0.00637788 0.0618123 0)
(0.0095667 0.064769 1.00738e-21)
(0.0128803 0.0619662 -4.74888e-19)
(0.0161533 0.0590568 9.21036e-19)
(0.0192488 0.0559147 -5.27522e-19)
(0.0221391 0.052666 -3.60461e-19)
(0.0248586 0.0494027 -2.23087e-18)
(0.0274379 0.0462216 3.85398e-18)
(0.0299507 0.0431755 -1.50191e-18)
(0.0324473 0.0402967 1.19752e-18)
(0.034999 0.0375662 6.55176e-19)
(0.0032157 0.0302614 6.49397e-21)
(0.00260834 0.0650362 -5.70007e-20)
(0.00658233 0.0647202 1.23977e-20)
(0.00967871 0.0615075 0)
(0.012718 0.0583968 5.0722e-19)
(0.0157638 0.0551595 -7.96737e-19)
(0.0187583 0.0518479 0)
(0.0217103 0.0485155 0)
(0.0245923 0.0452447 0)
(0.0274551 0.0420572 7.28418e-21)
(0.0302971 0.0389804 -3.48467e-18)
(0.0331809 0.0359874 -1.04709e-19)
(-0.00340518 0.034212 -6.54498e-21)
(-0.000672483 0.0721043 0)
(0.00359654 0.0702049 0)
(0.00682145 0.0659761 -5.98975e-19)
(0.0100414 0.0620643 4.16995e-19)
(0.0133464 0.0581789 -1.04725e-18)
(0.0166839 0.054324 1.34858e-18)
(0.0200218 0.0505301 0)
(0.0233285 0.0468349 0)
(0.0266192 0.0432461 -1.06812e-18)
(0.0298985 0.0397651 -1.28013e-18)
(0.0332007 0.0363691 3.74556e-18)
(-0.0102636 0.0372065 -5.13555e-21)
(-0.00525629 0.0782487 -1.03247e-19)
(-0.000611169 0.0747146 8.13391e-20)
(0.00295363 0.0694148 -2.7251e-19)
(0.00654076 0.0646118 1.05456e-18)
(0.0102384 0.060007 -1.2723e-18)
(0.0139812 0.0555769 -7.98075e-19)
(0.017722 0.0513178 -2.82063e-18)
(0.0214226 0.0472333 -2.17913e-19)
(0.0250877 0.0433004 2.12678e-18)
(0.0287205 0.0394959 2.55242e-18)
(0.0323546 0.0357833 -2.54444e-18)
(-0.018259 0.0398383 0)
(-0.0110332 0.0836904 2.5937e-20)
(-0.00596756 0.0782362 -1.56176e-19)
(-0.00188034 0.0717541 5.09495e-19)
(0.0022547 0.066013 9.3738e-20)
(0.00650533 0.0606881 6.91082e-19)
(0.0107469 0.0557257 8.14003e-19)
(0.0149518 0.0510638 9.29957e-19)
(0.0190454 0.0466736 -2.20475e-18)
(0.0230695 0.0424756 2.20475e-18)
(0.0269994 0.0384436 -3.85614e-18)
(0.0309091 0.0344874 5.31404e-18)
(-0.0279013 0.0421286 -3.22395e-20)
(-0.0181713 0.0883183 2.33451e-20)
(-0.012423 0.0805731 3.45739e-19)
(-0.007549 0.0727838 0)
(-0.0026032 0.066093 -1.30883e-18)
(0.00235287 0.0601321 1.48278e-18)
(0.00722061 0.054742 0)
(0.0119109 0.0498176 -2.07206e-18)
(0.0164241 0.0452333 2.07206e-18)
(0.0207502 0.0409101 0)
(0.0249452 0.0367361 -8.32203e-20)
(0.0290328 0.0326581 2.65652e-18)
(-0.0396622 0.0439484 0)
(-0.0269129 0.0918013 -1.40699e-19)
(-0.0200099 0.0813862 2.60705e-19)
(-0.0139041 0.072221 0)
(-0.00783471 0.064691 -7.54154e-19)
(-0.00197129 0.0582682 -9.33018e-20)
(0.00361018 0.0526597 1.73642e-18)
(0.00882604 0.0476515 2.14169e-18)
(0.0137302 0.0430519 -2.14169e-18)
(0.0183253 0.0387317 2.43495e-18)
(0.0227079 0.0345531 -2.5072e-18)
(0.0269046 0.0304455 -8.29627e-18)
(-0.0546887 0.0451054 0)
(-0.0377641 0.093746 1.40875e-19)
(-0.0288667 0.0802222 -4.50068e-19)
(-0.0208507 0.0697641 6.71839e-19)
(-0.0132932 0.0616776 0)
(-0.00629713 0.0551155 -1.68065e-18)
(4.97627e-05 0.049584 2.0236e-18)
(0.00582677 0.0447246 1.78778e-19)
(0.0110685 0.0403054 -4.57455e-18)
(0.0159089 0.0361252 -2.53764e-18)
(0.0203913 0.0320763 -8.90765e-20)
(0.0246468 0.0280171 5.54956e-18)
(-0.074398 0.0450346 0)
(-0.0512297 0.0931975 -2.42136e-19)
(-0.0388776 0.0763139 -6.31653e-19)
(-0.0281164 0.0650074 -6.69922e-19)
(-0.0186602 0.0569371 1.70836e-18)
(-0.0104193 0.0507317 0)
(-0.0032664 0.0456442 0)
(0.00300983 0.0412076 0)
(0.00856603 0.037145 0)
(0.0135626 0.0332611 2.46476e-18)
(0.0181135 0.0294259 -2.69979e-18)
(0.0223316 0.025526 2.69979e-18)
(-0.100576 0.042942 0)
(-0.0673912 0.0887455 2.40632e-19)
(-0.049363 0.0686425 -1.0935e-19)
(-0.0349912 0.0575652 8.31477e-19)
(-0.0234203 0.0504521 9.73487e-19)
(-0.0139793 0.0452551 -1.98438e-18)
(-0.00612576 0.0410212 0)
(0.000544073 0.0372648 3.81612e-20)
(0.00631728 0.0337305 -7.06901e-18)
(0.0113995 0.0302547 0)
(0.0159436 0.0267284 5.2747e-18)
(0.020068 0.0230572 -2.82345e-18)
(-0.136173 0.0368779 0)
(-0.0848738 0.0770758 3.83727e-19)
(-0.0586818 0.0557944 1.57724e-18)
(-0.0403541 0.047246 -1.65328e-18)
(-0.0269298 0.0424473 -2.7946e-18)
(-0.0166118 0.0389726 5.01218e-18)
(-0.0083165 0.0359598 2.34793e-20)
(-0.00144042 0.0330883 -2.23466e-18)
(0.00441898 0.0302003 2.40257e-18)
(0.00949411 0.0272166 -5.03767e-18)
(0.0139594 0.0240663 -7.90743e-18)
(0.0179293 0.020687 8.15953e-18)
(-0.185537 0.0223177 -2.87355e-19)
(-0.0976454 0.0507194 -1.74418e-18)
(-0.0637075 0.0364694 5.49214e-19)
(-0.0428282 0.0345203 0)
(-0.0286177 0.033549 0)
(-0.0180603 0.0323457 9.40528e-20)
(-0.00972691 0.0307773 6.62088e-18)
(-0.00287615 0.0288833 4.54129e-18)
(0.00291381 0.0266983 0)
(0.00789104 0.0242454 4.9812e-18)
(0.0122087 0.0215149 0)
(0.015973 0.0184743 6.45561e-21)
(0.0376264 0.0349552 -5.09108e-18)
(0.0403898 0.0324288 2.19031e-18)
(0.0432888 0.0299368 -2.4731e-18)
(0.0463464 0.0274232 -8.79805e-19)
(0.0495119 0.0248271 -9.41417e-19)
(0.0527581 0.0220996 0)
(0.0559741 0.0191953 0)
(0.059035 0.016089 2.33923e-18)
(0.0620245 0.0127298 -2.33923e-18)
(0.0648377 0.00945065 0)
(0.0620114 0.00620865 0)
(0.0291853 0.0147969 -5.05275e-22)
(0.0361037 0.0330769 2.67079e-18)
(0.0391172 0.0302071 0)
(0.0422101 0.0273623 7.82432e-21)
(0.0454074 0.024496 1.6579e-18)
(0.0486702 0.0215961 8.84908e-19)
(0.0519816 0.018638 3.8787e-18)
(0.0552653 0.0156338 -5.93973e-18)
(0.058434 0.0126019 1.00466e-18)
(0.0615528 0.00956211 0)
(0.0648228 0.00645887 0)
(0.0652541 0.0024811 0)
(0.030548 0.00305254 7.6663e-19)
(0.0365378 0.0330387 1.4913e-18)
(0.039948 0.0297433 -4.36881e-18)
(0.043439 0.0264582 1.60388e-18)
(0.0470345 0.023158 3.52735e-18)
(0.0507247 0.0198339 -3.52735e-18)
(0.0545044 0.016487 0)
(0.0583342 0.0131449 0)
(0.0621539 0.00985407 1.30963e-20)
(0.0660524 0.00665439 1.15419e-18)
(0.0703367 0.00344563 0)
(0.072341 -0.000839286 0)
(0.0345178 -0.00367225 -7.72167e-19)
(0.0360112 0.0321277 -1.05996e-19)
(0.0397301 0.0284933 4.48539e-18)
(0.0435387 0.0248474 3.37134e-18)
(0.047474 0.0211705 -3.37134e-18)
(0.0515545 0.0174517 0)
(0.0558026 0.0137024 1.95086e-18)
(0.0602126 0.00995491 0)
(0.0647566 0.00627145 3.31891e-18)
(0.0695301 0.00270304 -1.18797e-18)
(0.0748761 -0.000847782 0)
(0.0785011 -0.00551972 -6.6204e-19)
(0.037524 -0.01067 1.27445e-18)
(0.0347976 0.0305915 -2.90413e-18)
(0.0387495 0.02667 0)
(0.0427797 0.0227192 0)
(0.0469738 0.0186788 0)
(0.0513607 0.0145611 0)
(0.0560118 0.01035 -3.94439e-18)
(0.060959 0.0060953 8.65681e-20)
(0.0662199 0.00185197 -2.20381e-18)
(0.0719076 -0.00228183 0)
(0.0784233 -0.00634488 -1.24561e-18)
(0.0839718 -0.0114431 6.75254e-19)
(0.0401819 -0.0188668 -5.11003e-19)
(0.0330878 0.0285821 9.71561e-20)
(0.0371497 0.024466 -6.1242e-18)
(0.0413099 0.0202432 3.40103e-18)
(0.0456239 0.015882 1.99713e-19)
(0.0502005 0.0113451 6.86798e-20)
(0.0551145 0.00662808 6.01418e-18)
(0.0604801 0.00174078 2.01715e-19)
(0.0663745 -0.00323276 -6.53991e-18)
(0.073002 -0.00816034 -2.30969e-18)
(0.0808154 -0.0130405 1.26107e-18)
(0.0886212 -0.0188073 -1.31522e-18)
(0.0424828 -0.0287942 -9.74109e-19)
(0.0310189 0.0262895 8.81917e-18)
(0.0350975 0.0220489 3.19703e-18)
(0.0392457 0.017618 0)
(0.0435511 0.012972 0)
(0.0481323 0.0080285 6.64985e-20)
(0.053128 0.00276135 -3.75893e-18)
(0.0587053 -0.0028527 6.12317e-18)
(0.0650764 -0.00875468 8.8824e-20)
(0.0725073 -0.0148445 2.32417e-18)
(0.0816705 -0.0209718 0)
(0.0921863 -0.0279098 3.79877e-20)
(0.0443491 -0.0410932 1.17165e-20)
(0.0287164 0.0238873 -2.8538e-18)
(0.0327255 0.0195699 -3.10296e-18)
(0.0367352 0.0150145 3.23329e-18)
(0.0408838 0.0101147 -3.50495e-18)
(0.0452823 0.00480299 -1.78818e-19)
(0.0501186 -0.0010313 7.4145e-18)
(0.0556202 -0.00745166 -4.02952e-18)
(0.0621002 -0.0145123 2.0633e-18)
(0.0701025 -0.0221306 0)
(0.0805452 -0.0301977 1.22402e-18)
(0.0940962 -0.0391797 7.17867e-19)
(0.0454532 -0.0566147 -8.48371e-19)
(0.0263091 0.0214722 2.98698e-18)
(0.0301391 0.0171719 -2.98698e-18)
(0.0339226 0.012535 -3.22407e-18)
(0.0377615 0.00746463 -6.76068e-18)
(0.0417961 0.00182339 7.02431e-18)
(0.0461961 -0.00452601 -7.31216e-18)
(0.0512449 -0.011781 0)
(0.0573825 -0.0201057 -2.05742e-18)
(0.0653285 -0.0296678 0)
(0.0765986 -0.0405152 0)
(0.0935998 -0.0529765 0)
(0.0454433 -0.0767407 4.2777e-19)
(0.0238769 0.0191562 2.82345e-18)
(0.0274644 0.0149332 -6.01415e-18)
(0.0309225 0.0102987 6.2622e-18)
(0.0343452 0.00512653 6.47148e-18)
(0.0378376 -0.000731187 3.34988e-18)
(0.0415518 -0.00749678 0)
(0.0457328 -0.0154569 0)
(0.0508359 -0.0250171 3.80694e-18)
(0.0578362 -0.0367125 0)
(0.0688735 -0.0512172 -1.10513e-18)
(0.0890454 -0.0694943 5.93929e-19)
(0.0432742 -0.103267 -7.49461e-19)
(0.0215095 0.0170004 -5.69996e-18)
(0.0247933 0.0129239 5.96025e-18)
(0.0278609 0.00836261 -6.20607e-18)
(0.0307833 0.00319222 -1.60777e-17)
(0.0336149 -0.00275234 6.24977e-20)
(0.0364347 -0.00973679 2.063e-20)
(0.0393783 -0.0181385 -3.51677e-18)
(0.0427643 -0.0285897 -3.77282e-18)
(0.0474108 -0.0421488 0)
(0.0559247 -0.0607592 2.97331e-18)
(0.0772673 -0.0871505 6.09028e-19)
(0.0371075 -0.13911 -6.80217e-19)
(0.0192744 0.0150575 1.45409e-20)
(0.0222086 0.0111825 0)
(0.024848 0.00676226 0)
(0.0272276 0.00169467 3.11651e-18)
(0.0293478 -0.00418746 9.68073e-18)
(0.0311775 -0.011138 -3.36477e-18)
(0.032668 -0.019581 9.91635e-20)
(0.0337627 -0.0302622 -1.67679e-18)
(0.0346129 -0.0446411 -1.78737e-18)
(0.0364446 -0.0657839 -1.92293e-18)
(0.0506999 -0.0999763 0)
(0.0223602 -0.188787 5.58469e-19)
(-0.128545 -0.138467 2.30938e-19)
(-0.0892327 -0.0145756 9.17714e-19)
(-0.0602679 0.0121177 9.79893e-20)
(-0.0413841 0.0213012 0)
(-0.028225 0.0248309 2.13434e-18)
(-0.0182824 0.0259489 -2.11197e-18)
(-0.0103515 0.025791 -6.6565e-18)
(-0.00377196 0.024838 -4.59792e-18)
(0.00180657 0.0233382 8.80236e-20)
(0.00660159 0.0214134 -2.45089e-18)
(0.010723 0.019121 5.18397e-18)
(0.0142394 0.016455 -5.3538e-18)
(-0.0569264 -0.0814093 0)
(-0.0615957 -0.0286229 0)
(-0.0492242 -0.001439 -1.02208e-18)
(-0.0365916 0.011392 2.17496e-18)
(-0.026092 0.0175027 -5.38628e-18)
(-0.0174843 0.020291 -3.37972e-18)
(-0.010305 0.0212533 4.46474e-18)
(-0.00419945 0.0210988 1.16791e-17)
(0.00106155 0.0202036 -2.36633e-18)
(0.00561496 0.018771 0)
(0.00951466 0.0169137 2.04111e-20)
(0.0127602 0.0146562 0)
(-0.0257034 -0.0534094 -2.99347e-19)
(-0.0402112 -0.0275768 2.99347e-19)
(-0.0377695 -0.00727119 2.2618e-18)
(-0.0306682 0.00500908 8.98587e-20)
(-0.0230501 0.0119132 2.15969e-18)
(-0.0160294 0.015592 -1.18466e-19)
(-0.00977927 0.017298 0)
(-0.00426224 0.0177437 -2.26224e-18)
(0.000615773 0.0173366 -2.36146e-18)
(0.00490298 0.016335 7.42472e-18)
(0.00858906 0.0148967 -7.54194e-18)
(0.0115686 0.0130808 5.20538e-18)
(-0.0135917 -0.0376791 -6.25183e-19)
(-0.0267843 -0.0235746 1.18764e-18)
(-0.0285088 -0.0092201 7.41129e-20)
(-0.0250267 0.00118963 -2.19335e-18)
(-0.0197941 0.00786658 -4.51009e-18)
(-0.0142644 0.0118357 -9.70191e-20)
(-0.00896789 0.0139497 -4.59552e-18)
(-0.00407098 0.0147925 2.34911e-18)
(0.000397383 0.0147492 -2.34911e-18)
(0.00442664 0.014098 -4.84879e-18)
(0.00794907 0.0130445 0)
(0.0107167 0.0117248 5.12072e-18)
(0.0172174 0.0133556 5.5482e-18)
(0.0197673 0.00972515 5.70979e-18)
(0.0219623 0.0055018 0)
(0.0238035 0.000620009 0)
(0.0252319 -0.00505025 3.16784e-18)
(0.026108 -0.0117179 -3.16784e-18)
(0.0261835 -0.019753 1.67289e-18)
(0.0249586 -0.0297951 5.08021e-18)
(0.0212876 -0.0430945 0)
(0.0119462 -0.0621699 0)
(-0.0149919 -0.0914007 4.16381e-19)
(-0.139842 -0.130809 -8.65203e-19)
(0.0153703 0.0119223 -5.44404e-18)
(0.0175077 0.00856074 -2.71374e-20)
(0.0192599 0.00456294 0)
(0.020603 -7.62294e-05 -2.99719e-18)
(0.0214185 -0.00541817 -6.922e-20)
(0.0214919 -0.011605 3.06641e-18)
(0.0204412 -0.0188659 0)
(0.0175479 -0.0275535 -3.16253e-18)
(0.0113053 -0.0381439 0)
(-0.0016888 -0.0508846 -3.1617e-18)
(-0.0291201 -0.0632778 -1.539e-18)
(-0.0823426 -0.0584609 -9.98253e-27)
(0.0137418 0.0107805 8.83682e-21)
(0.0154331 0.00768813 -5.51159e-18)
(0.0167622 0.00390835 0)
(0.0176707 -0.000459685 5.74309e-18)
(0.0179914 -0.00540743 2.97076e-18)
(0.0174635 -0.0109952 4.81755e-20)
(0.0156676 -0.0173045 -7.51574e-18)
(0.0118894 -0.0243826 9.19249e-18)
(0.00486644 -0.0320401 -1.53673e-18)
(-0.00755805 -0.0391816 6.86614e-18)
(-0.0280465 -0.0415653 2.22198e-18)
(-0.054084 -0.0268604 -3.44072e-19)
(0.0123332 0.00998498 1.57679e-17)
(0.0135271 0.00710723 0)
(0.0144661 0.00349497 0)
(0.0150211 -0.000606704 -5.64719e-18)
(0.014976 -0.00513656 -5.69163e-18)
(0.0140494 -0.0100873 5.7668e-18)
(0.0118502 -0.0154271 1.17446e-17)
(0.00779036 -0.0209863 -5.96924e-18)
(0.00100894 -0.0262313 2.91416e-18)
(-0.00951419 -0.0296983 -2.95304e-18)
(-0.023985 -0.0278985 -1.43384e-18)
(-0.0381994 -0.0145372 -3.28941e-19)
(-0.00815008 -0.0280146 6.14264e-19)
(-0.0185139 -0.0195817 2.20923e-20)
(-0.0215974 -0.00941988 -2.258e-18)
(-0.0202116 -0.000989991 0)
(-0.0167232 0.00501239 3.30812e-18)
(-0.0124468 0.0088989 7.85658e-18)
(-0.0080272 0.0111651 1.13569e-17)
(-0.00373225 0.0122308 0)
(0.000330044 0.0124283 0)
(0.00413012 0.0120279 -2.4275e-18)
(0.00759122 0.0113076 2.4275e-18)
(0.0103192 0.0105454 -1.00603e-17)
(-0.00536312 -0.0216684 -2.9948e-19)
(-0.0132854 -0.0162413 8.94872e-19)
(-0.0165505 -0.00891186 -2.88761e-18)
(-0.0162979 -0.0021868 0)
(-0.0140066 0.00301369 4.51542e-18)
(-0.0107253 0.00662249 -4.45555e-18)
(-0.0070627 0.00886771 -2.22029e-18)
(-0.00332884 0.010024 3.08111e-20)
(0.000344406 0.0103467 -2.30637e-18)
(0.00394115 0.0100854 0)
(0.00748524 0.00958397 0)
(0.0106206 0.00944808 9.86282e-18)
(-0.0037694 -0.0172865 0)
(-0.00984967 -0.0135807 -1.16053e-18)
(-0.0128632 -0.00816794 2.2644e-18)
(-0.0131828 -0.00280937 1.11977e-18)
(-0.0116916 0.00161544 -6.66736e-18)
(-0.00917335 0.00486227 3.35315e-18)
(-0.00614779 0.00698336 -6.74209e-18)
(-0.0029228 0.00813409 2.27806e-18)
(0.000370914 0.00848443 3.13607e-20)
(0.00375315 0.00823007 3.76111e-20)
(0.00750241 0.00773935 -1.18095e-17)
(0.0121832 0.00816326 -9.68005e-18)
(-0.00277795 -0.0141447 0)
(-0.00750183 -0.0114917 2.31284e-18)
(-0.0101383 -0.00739898 0)
(-0.0107167 -0.00310689 4.48136e-18)
(-0.00975489 0.000628347 0)
(-0.00781173 0.00349496 2.226e-18)
(-0.00531719 0.00544029 8.86228e-18)
(-0.00254902 0.00652365 -2.22711e-18)
(0.000358793 0.00683297 0)
(0.00344232 0.00645761 0)
(0.00721052 0.00557694 -2.32142e-18)
(0.0160393 0.00623691 2.34018e-18)
(0.0110996 0.00964176 -1.03242e-17)
(0.0117343 0.00681113 -2.66646e-18)
(0.012341 0.00326595 1.34187e-17)
(0.0126417 -0.000598362 -8.22563e-18)
(0.0123566 -0.00471344 1.11513e-17)
(0.0112077 -0.00904688 -1.12364e-17)
(0.00886343 -0.0134949 -1.41799e-17)
(0.0048949 -0.0177791 0)
(-0.00118959 -0.0212581 -2.86326e-18)
(-0.00970953 -0.0226069 0)
(-0.0199512 -0.0194466 0)
(-0.0284376 -0.00895335 -6.44838e-19)
(0.00995256 0.0100025 0)
(0.00996269 0.00676835 0)
(0.0103468 0.00314521 -1.0558e-17)
(0.0105087 -0.000508626 2.67472e-18)
(0.0100987 -0.00422393 2.691e-18)
(0.00886351 -0.00798577 5.58e-20)
(0.00654671 -0.0116604 6.90815e-18)
(0.00287022 -0.0149361 4.09143e-18)
(-0.00240197 -0.017202 0)
(-0.00919093 -0.017409 0)
(-0.0165684 -0.0140726 -3.23719e-19)
(-0.0220315 -0.00605871 1.60067e-18)
(0.00861846 0.0116161 0)
(0.00806822 0.0068486 -2.55823e-18)
(0.00844484 0.00302685 -7.74477e-18)
(0.00860016 -0.00040696 1.04245e-17)
(0.00816395 -0.00373338 1.05215e-17)
(0.00693966 -0.0069768 2.67753e-18)
(0.00475466 -0.0100027 -3.98129e-18)
(0.00145086 -0.0125055 -4.0315e-18)
(-0.00302664 -0.0139622 5.26907e-18)
(-0.00843824 -0.0135954 0)
(-0.0138894 -0.0105206 3.15419e-19)
(-0.0176106 -0.00437493 9.26454e-19)
(0.00664428 0.0155369 -9.84609e-18)
(0.00586428 0.00662335 -9.97802e-18)
(0.00662852 0.00278192 1.01085e-17)
(0.00690778 -0.000345936 -1.279e-17)
(0.00651592 -0.00327986 2.50578e-18)
(0.00536336 -0.00605736 0)
(0.00336281 -0.00854482 -1.25189e-18)
(0.000450789 -0.0104641 5.52179e-21)
(-0.0033295 -0.0113894 -3.87973e-18)
(-0.0076591 -0.0107644 0)
(-0.0117768 -0.00807712 -2.17732e-18)
(-0.014446 -0.00330449 -2.74131e-18)
(-0.00211746 -0.0118252 -5.81291e-19)
(-0.00584064 -0.00985227 -2.26859e-18)
(-0.00809356 -0.00668868 0)
(-0.00876478 -0.00322119 -4.39563e-18)
(-0.00815024 -7.40223e-05 -1.09482e-18)
(-0.00664139 0.00243041 -5.45099e-18)
(-0.0045859 0.00418126 2.18936e-18)
(-0.00222746 0.0051678 0)
(0.000286931 0.00540629 0)
(0.00292246 0.00484456 2.25634e-18)
(0.00563728 0.00295721 6.83151e-18)
(0.00871758 -0.00377184 0)
(-0.00165467 -0.010074 5.70072e-19)
(-0.00462814 -0.00856048 0)
(-0.00653278 -0.0060662 -4.42238e-18)
(-0.00721021 -0.00323714 1.0865e-18)
(-0.00682261 -0.000581664 -1.0865e-18)
(-0.00564349 0.00159599 6.49965e-18)
(-0.00394983 0.00315487 4.3256e-18)
(-0.00195632 0.00404005 -2.16543e-18)
(0.000178575 0.00422047 0)
(0.00234579 0.00359355 0)
(0.00428854 0.00172312 0)
(0.00560188 -0.00247344 0)
(-0.00131732 -0.00872862 -5.60282e-19)
(-0.00371896 -0.00753725 -2.75405e-18)
(-0.00532179 -0.00553499 4.88377e-18)
(-0.00596342 -0.00320203 0)
(-0.0057235 -0.00095185 0)
(-0.00479748 0.00094037 -1.91535e-17)
(-0.00340116 0.00232206 1.06592e-17)
(-0.00172856 0.00311531 0)
(6.12822e-05 0.00326351 -2.15178e-18)
(0.00180789 0.00267157 4.31723e-18)
(0.00319812 0.00108691 -2.16545e-18)
(0.00382601 -0.00173805 0)
(-0.00106421 -0.00768094 5.49385e-19)
(-0.00301993 -0.00672247 2.16392e-18)
(-0.00436787 -0.00508823 -4.2849e-18)
(-0.00495153 -0.00314417 3.18822e-18)
(-0.00481024 -0.00122587 -3.15994e-18)
(-0.00407666 0.000421193 -2.12847e-18)
(-0.00292831 0.00164753 -1.46612e-17)
(-0.00153052 0.00236159 -2.10265e-18)
(-4.57664e-05 0.00250245 2.10265e-18)
(0.00135379 0.0019968 8.46664e-18)
(0.00236047 0.000733398 0)
(0.00267438 -0.00123361 0)
(-0.000867021 -0.00685736 0)
(-0.00247193 -0.00607102 0)
(-0.00360223 -0.00471739 4.20157e-18)
(-0.0041245 -0.00307825 -4.16116e-18)
(-0.00404388 -0.0014313 -5.19451e-18)
(-0.00346373 1.06636e-05 1.95939e-17)
(-0.00251612 0.00110224 4.10612e-18)
(-0.00135695 0.00175417 1.03184e-17)
(-0.000129519 0.00190171 0)
(0.000986803 0.00150158 -8.30197e-18)
(0.0017341 0.000525053 -8.32953e-18)
(0.00189564 -0.000873998 0)
(-0.000709939 -0.00620518 0)
(-0.00203387 -0.00554899 5.19822e-19)
(-0.0029783 -0.0044108 -5.19822e-19)
(-0.00344019 -0.00301322 1.02152e-18)
(-0.00339449 -0.00158787 1.52675e-17)
(-0.00293829 -0.000315793 -1.0129e-17)
(-0.00215249 0.000660931 2.0268e-18)
(-0.00119991 0.00126632 -8.0968e-18)
(-0.000185817 0.00142739 -2.03264e-18)
(0.000702027 0.00113525 2.03264e-18)
(0.00126799 0.000392139 8.16787e-18)
(0.00135466 -0.000617491 0)
(-0.000583236 -0.00568654 0)
(-0.00167566 -0.00513084 5.1055e-19)
(-0.00246559 -0.00415973 -5.1055e-19)
(-0.00286426 -0.00295503 0)
(-0.00284359 -0.00170685 -8.99655e-18)
(-0.00247953 -0.000577189 -9.92879e-19)
(-0.00183276 0.000307378 -3.98375e-18)
(-0.00104885 0.000874547 -9.95277e-18)
(-0.000218256 0.00105634 7.97113e-18)
(0.000490207 0.000859822 0)
(0.000923448 0.00030507 1.60008e-17)
(0.000971302 -0.000429819 0)
(-0.000476172 -0.00527462 0)
(-0.00138241 -0.00479553 5.01324e-19)
(-0.00203138 -0.00395664 3.49177e-18)
(-0.00238173 -0.00290292 9.86541e-19)
(-0.00236038 -0.00180249 6.88667e-18)
(-0.00208536 -0.000783636 -1.95665e-18)
(-0.00153623 1.85644e-05 9.76869e-18)
(-0.000911539 0.000565238 1.56277e-17)
(-0.000219761 0.000761162 7.82651e-18)
(0.000332199 0.000655499 1.95965e-18)
(0.0006717 0.000243433 -1.96505e-18)
(0.000693772 -0.000291595 0)
(-0.000392511 -0.004947 0)
(-0.00113031 -0.00453082 0)
(-0.0016724 -0.0037914 -3.91679e-18)
(-0.00195577 -0.00286495 0)
(-0.00195448 -0.00187249 9.53675e-21)
(-0.00171856 -0.000955941 -1.92168e-18)
(-0.00128333 -0.000205022 1.92168e-18)
(-0.000758808 0.000311947 -7.6684e-18)
(-0.0002132 0.000536946 -1.91307e-18)
(0.000234031 0.000496483 1.72873e-17)
(0.00048388 0.000202835 -1.53879e-17)
(0.000496543 -0.000188896 1.65823e-17)
(-0.000324213 -0.00469148 0)
(-0.000916555 -0.00432053 1.94188e-18)
(-0.00136857 -0.00366296 -3.8488e-18)
(-0.00158546 -0.00283266 9.51609e-19)
(-0.00160456 -0.00192946 -9.48398e-18)
(-0.00138583 -0.00109536 6.61998e-18)
(-0.00105645 -0.00038102 -7.5374e-18)
(-0.000603453 0.0001056 1.88369e-18)
(-0.000188942 0.000367537 -1.50609e-17)
(0.000176633 0.000369735 -1.31906e-17)
(0.000350385 0.000178279 -1.88549e-18)
(0.000351878 -0.000116842 -1.62103e-17)
(-0.000252819 -0.00449363 0)
(-0.000707047 -0.0041611 -5.71709e-18)
(-0.00104523 -0.00357335 3.77641e-18)
(-0.00121245 -0.00282167 0)
(-0.0012125 -0.0020011 -9.29572e-19)
(-0.00104296 -0.00122406 -4.63578e-18)
(-0.000776859 -0.000551723 -7.40901e-18)
(-0.000432644 -6.61528e-05 -3.69738e-18)
(-0.000117489 0.000218539 1.84823e-17)
(0.000140749 0.000282409 1.29455e-17)
(0.000248678 0.000170864 0)
(0.000219808 -3.47884e-05 0)
(-0.000311718 -0.00768103 -1.66254e-18)
(-0.000863178 -0.00714983 -5.62945e-22)
(-0.00126691 -0.00620957 0)
(-0.00145629 -0.00499526 1.61487e-18)
(-0.00142921 -0.003659 -1.61487e-18)
(-0.00119462 -0.00236613 -1.60269e-17)
(-0.000836216 -0.00122858 5.43616e-17)
(-0.000402892 -0.000363339 0)
(-2.11914e-05 0.000188633 -2.55453e-17)
(0.000251661 0.000402237 -2.55603e-17)
(0.000316758 0.000327534 -2.55791e-17)
(0.000208115 8.77156e-05 2.88325e-17)
(-0.00338899 0.00822921 1.08271e-17)
(0.00319743 0.00510896 9.78713e-18)
(0.00497606 0.00232768 -9.89077e-18)
(0.00544393 -0.000347126 0)
(0.00512698 -0.00288193 -1.25863e-17)
(0.00407657 -0.00524301 -7.54345e-18)
(0.00227818 -0.00728592 6.32852e-18)
(-0.000262875 -0.00876734 3.75835e-18)
(-0.00344091 -0.00934475 0)
(-0.00694323 -0.00862982 6.12773e-19)
(-0.0101317 -0.00633573 1.82483e-18)
(-0.0121103 -0.00257593 1.19182e-18)
(-0.00214746 0.00517341 1.06714e-17)
(0.00191889 0.00381508 -2.41503e-18)
(0.0036882 0.0018109 1.21149e-17)
(0.00422577 -0.00038934 0)
(0.00397114 -0.00254032 0)
(0.00302688 -0.00453126 1.23257e-17)
(0.00142757 -0.00620909 7.3561e-18)
(-0.000777743 -0.00735851 -6.14416e-18)
(-0.00345948 -0.00771098 1.22212e-18)
(-0.0063132 -0.00699396 5.405e-18)
(-0.00882675 -0.00505389 -5.97833e-19)
(-0.0103503 -0.00205254 5.82238e-19)
(-0.00146007 0.00344591 -1.04022e-17)
(0.00124295 0.00277448 0)
(0.00273281 0.00133205 0)
(0.00323988 -0.000444567 0)
(0.00302115 -0.0022456 0)
(0.00217446 -0.0039133 1.19905e-17)
(0.00075789 -0.00529069 -2.28058e-17)
(-0.00115511 -0.00618812 5.97114e-18)
(-0.00342166 -0.00639374 0)
(-0.00577905 -0.00571799 -4.71389e-18)
(-0.00780305 -0.00408636 -2.02876e-18)
(-0.00899668 -0.00166123 -8.58537e-19)
(-0.00099733 0.00234235 1.01933e-17)
(0.000854687 0.00198696 1.16037e-17)
(0.00202776 0.000931731 -1.1637e-17)
(0.00245289 -0.000493251 9.34439e-18)
(0.00224605 -0.00198717 0)
(0.00148262 -0.00337722 2.31461e-18)
(0.000227032 -0.00450638 8.21925e-18)
(-0.00143441 -0.00521185 -7.01347e-18)
(-0.00336646 -0.00532252 1.16354e-18)
(-0.00532745 -0.00471175 -5.70636e-19)
(-0.00697941 -0.00333697 2.84194e-18)
(-0.00794431 -0.00135797 0)
(-0.000680889 0.00161119 1.32716e-20)
(0.000612949 0.00140714 -9.09936e-18)
(0.00150407 0.000618149 1.14178e-17)
(0.00182891 -0.000523252 -2.05998e-17)
(0.00161786 -0.00175466 9.16539e-18)
(0.000923141 -0.00290901 -2.43232e-20)
(-0.000195439 -0.0038328 -1.14289e-18)
(-0.00164506 -0.00439252 1.13912e-17)
(-0.00330067 -0.00444139 -1.13685e-18)
(-0.00495533 -0.00390352 0)
(-0.00632652 -0.00274918 2.75572e-19)
(-0.00711386 -0.00111891 -1.37006e-18)
(-0.000463736 0.0011158 -9.71808e-18)
(0.000450903 0.000986178 0)
(0.00110931 0.000384344 0)
(0.00133536 -0.000531439 1.12172e-17)
(0.00110932 -0.00154072 -2.02039e-17)
(0.000470633 -0.00249808 -1.123e-17)
(-0.000534668 -0.00324912 1.1245e-18)
(-0.00180512 -0.00370207 -8.92871e-18)
(-0.00324195 -0.00370662 1.11159e-18)
(-0.00464622 -0.00325584 -5.4614e-19)
(-0.00579504 -0.00227623 8.16038e-19)
(-0.00645469 -0.000923909 -2.69204e-19)
(-0.000313679 0.000773728 -1.90061e-17)
(0.000335924 0.00068403 -1.97155e-17)
(0.000809455 0.000217618 4.38728e-18)
(0.000945112 -0.000516116 6.589e-18)
(0.000700585 -0.00134218 1.75873e-17)
(0.000105046 -0.00212965 2.19417e-18)
(-0.000806759 -0.00274407 -2.19417e-18)
(-0.001931 -0.00310803 0)
(-0.00318843 -0.00309409 0)
(-0.00439943 -0.00271493 3.76178e-18)
(-0.00536799 -0.00189253 5.34704e-19)
(-0.00592661 -0.000763949 1.05182e-18)
(-0.000209197 0.00053569 1.85646e-17)
(0.000251823 0.000468909 -3.01306e-21)
(0.00057899 0.00010686 -1.72067e-17)
(0.000638233 -0.000483726 -2.58351e-17)
(0.000369897 -0.00114895 -8.61889e-18)
(-0.000188215 -0.00180519 2.14847e-18)
(-0.00103019 -0.00228912 -3.21896e-18)
(-0.00202831 -0.00260694 1.07049e-18)
(-0.00315024 -0.00255749 8.48582e-18)
(-0.00419568 -0.00227841 -8.94569e-18)
(-0.00502211 -0.00156777 7.82883e-19)
(-0.00550312 -0.000624988 -1.28979e-18)
(-0.000135332 0.000367241 -1.5884e-17)
(0.000188977 0.000320166 1.47539e-17)
(0.000404042 3.57826e-05 1.68779e-17)
(0.000395872 -0.000427736 8.21621e-21)
(0.000109505 -0.000974911 0)
(-0.000426943 -0.00149468 8.42711e-18)
(-0.00120534 -0.00190927 1.04859e-18)
(-0.00211337 -0.00214221 -5.60235e-21)
(-0.00311585 -0.00212781 -1.76805e-17)
(-0.00404827 -0.00187266 4.12769e-18)
(-0.00473711 -0.00129136 0)
(-0.00516435 -0.000507576 1.01096e-18)
(-7.93868e-05 0.000247791 3.5496e-17)
(0.000143348 0.000216818 0)
(0.000274425 -2.16908e-06 2.06953e-18)
(0.00020499 -0.000362348 3.10492e-17)
(-9.0791e-05 -0.000809303 1.86161e-17)
(-0.000623648 -0.00121438 -1.048e-20)
(-0.00133774 -0.00157763 -3.09062e-18)
(-0.00219017 -0.00172746 9.22723e-18)
(-0.00308751 -0.00176557 8.15618e-18)
(-0.00392365 -0.00149027 3.53921e-18)
(-0.00452509 -0.00103864 5.03107e-19)
(-0.00489444 -0.000404286 0)
(-2.46635e-05 0.000148786 -1.73583e-17)
(0.000118369 0.000141848 0)
(0.000169771 -3.04872e-06 0)
(4.7694e-05 -0.000266841 -1.6245e-17)
(-0.000276762 -0.00059548 -1.62374e-17)
(-0.000797844 -0.000913371 -8.10595e-18)
(-0.00147988 -0.00118202 -8.07817e-18)
(-0.00226777 -0.00131132 -1.50844e-17)
(-0.00308906 -0.00132922 -1.00221e-18)
(-0.00383475 -0.00110887 -4.45969e-18)
(-0.00436892 -0.0007576 4.93399e-19)
(-0.00469016 -0.000291344 0)
(5.52933e-05 0.000135334 -3.15902e-17)
(0.000198581 0.000179378 0)
(0.000175011 5.57942e-05 0)
(-0.000129902 -0.000236597 3.50628e-18)
(-0.000748834 -0.000632418 -3.50628e-18)
(-0.00166679 -0.00103693 3.49398e-18)
(-0.00282427 -0.00138257 -3.49185e-18)
(-0.00413205 -0.00156646 1.38931e-17)
(-0.00546969 -0.0015872 0)
(-0.00665897 -0.00132604 -7.70137e-18)
(-0.00752302 -0.000894101 -5.93533e-18)
(-0.00802651 -0.000328395 1.68017e-18)
)
;

boundaryField
{
    rotor
    {
        type            fixedValue;
        value           nonuniform List<vector> 
48
(
(0.00660572 0.201784 -0)
(0.0197889 0.20092 -0)
(0.0328873 0.199195 -0)
(0.0458448 0.196618 -0)
(0.0586061 0.193198 -0)
(0.0711164 0.188952 -0)
(0.0833222 0.183896 -0)
(0.0951712 0.178053 -0)
(0.106613 0.171447 -0)
(0.117597 0.164107 -0)
(0.128079 0.156065 -0)
(0.138012 0.147354 -0)
(0.147354 0.138012 -0)
(0.156065 0.128079 -0)
(0.164107 0.117597 -0)
(0.171447 0.106613 -0)
(0.178053 0.0951712 -0)
(0.183896 0.0833222 -0)
(0.188952 0.0711164 -0)
(0.193198 0.0586061 -0)
(0.196618 0.0458448 -0)
(0.199195 0.0328873 -0)
(0.20092 0.0197889 -0)
(0.201784 0.00660572 -0)
(0 0.214625 0)
(0 0.239875 0)
(0 0.265125 0)
(0 0.290375 0)
(0 0.315625 0)
(0 0.340875 0)
(0 0.366125 0)
(0 0.391375 0)
(0 0.416625 0)
(0 0.441875 0)
(0 0.467125 0)
(0 0.492375 0)
(0.214625 3.8523e-10 -0)
(0.239875 4.30551e-10 -0)
(0.265125 4.75872e-10 -0)
(0.290375 5.21193e-10 -0)
(0.315625 5.66514e-10 -0)
(0.340875 6.11835e-10 -0)
(0.366125 6.57157e-10 -0)
(0.391375 7.02478e-10 -0)
(0.416625 7.47799e-10 -0)
(0.441875 7.9312e-10 -0)
(0.467125 8.38441e-10 -0)
(0.492375 8.83762e-10 -0)
)
;
    }
    stator
    {
        type            noSlip;
    }
    front
    {
        type            empty;
    }
    back
    {
        type            empty;
    }
    procBoundary1to0
    {
        type            processor;
        value           nonuniform List<vector> 
20
(
(-0.139992 0.129266 -4.63736e-19)
(-0.0824346 0.0569986 -2.90354e-19)
(-0.0541493 0.0255285 -6.14902e-19)
(-0.0382623 0.0133193 9.36503e-19)
(-0.0284915 0.00784278 -1.23711e-18)
(-0.0220829 0.00504863 9.09836e-19)
(-0.0176558 0.00346128 6.02885e-19)
(-0.014488 0.00248174 -1.1842e-18)
(-0.0121478 0.00184031 -8.28569e-22)
(-0.0103837 0.00140003 1.14249e-18)
(-0.00902641 0.00108756 -5.60449e-19)
(-0.00797048 0.000859773 -2.73002e-19)
(-0.00713773 0.00069105 -1.07961e-18)
(-0.00647733 0.000563542 1.05866e-18)
(-0.00594936 0.000465164 2.58116e-19)
(-0.00552683 0.000389847 1.019e-18)
(-0.00518939 0.000329824 -9.99527e-19)
(-0.00492182 0.000279587 -9.80816e-19)
(-0.00471194 0.000230514 7.22998e-19)
(-0.0080527 0.000308605 3.32573e-18)
)
;
    }
    procBoundary1to3
    {
        type            processor;
        value           nonuniform List<vector> 
20
(
(0.129207 -0.138411 -4.46072e-19)
(0.0575054 -0.0814192 0)
(0.02619 -0.0534303 -3.56799e-19)
(0.0139931 -0.0377056 6.6473e-19)
(0.00848155 -0.0280387 -6.5312e-19)
(0.00563605 -0.0216918 -3.22625e-19)
(0.0039939 -0.0173095 0)
(0.00295935 -0.0141676 0)
(0.00226305 -0.0118477 5.93465e-19)
(0.00177001 -0.0100961 -5.8201e-19)
(0.00140763 -0.00875026 5.69336e-19)
(0.00113341 -0.00770229 -5.58262e-19)
(0.000920448 -0.00687783 0)
(0.000753163 -0.0062258 0)
(0.000619087 -0.00570788 0)
(0.000507748 -0.00529662 0)
(0.000416709 -0.00497199 0)
(0.000336543 -0.00471561 0)
(0.00025027 -0.00451742 0)
(0.000302402 -0.00771979 1.67912e-18)
)
;
    }
}


// ************************************************************************* //
