/*--------------------------------*- C++ -*----------------------------------*\
  =========                 |
  \\      /  F ield         | OpenFOAM: The Open Source CFD Toolbox
   \\    /   O peration     | Website:  https://openfoam.org
    \\  /    A nd           | Version:  6
     \\/     M anipulation  |
\*---------------------------------------------------------------------------*/
FoamFile
{
    version     2.0;
    format      ascii;
    class       volScalarField;
    location    "1000";
    object      epsilon;
}
// * * * * * * * * * * * * * * * * * * * * * * * * * * * * * * * * * * * * * //

dimensions      [0 2 -3 0 0 0 0];

internalField   nonuniform List<scalar> 
768
(
493.593
288.613
293.106
294.16
294.43
294.496
294.537
294.545
294.544
294.542
294.554
294.549
448.655
134.435
81.6544
65.3283
59.9996
58.1119
57.3438
56.9493
56.7469
56.6289
56.5878
56.5918
405.837
108.85
48.7265
31.8561
27.0197
25.6119
25.2112
25.1001
25.0785
25.0854
25.0949
25.1049
370.228
100.023
41.7375
26.1677
21.9584
20.8392
20.5511
20.478
20.4611
20.4629
20.465
20.4681
340.527
92.8421
38.5145
24.5227
20.8963
19.9714
19.7473
19.6935
19.6821
19.6802
19.6817
19.6824
315.564
86.6254
36.2083
23.6425
20.5131
19.7486
19.5693
19.5344
19.5276
19.5265
19.5257
19.5264
294.049
81.1615
34.2979
22.9933
20.2803
19.6436
19.4999
19.4731
19.4692
19.4691
19.4715
19.4666
275.31
76.2694
32.7002
22.4687
20.1083
19.5702
19.4524
19.4305
19.4277
19.4303
19.433
19.4325
259.17
72.4521
31.4524
22.079
19.9736
19.5158
19.4164
19.3928
19.3883
19.3918
19.3901
19.3903
245.447
69.9359
30.5947
21.784
19.8709
19.4681
19.3796
19.3607
19.3568
19.3557
19.3617
19.3668
233.508
69.2005
29.9426
21.5287
19.786
19.425
19.35
19.3385
19.339
19.3321
19.324
19.3283
225.341
63.9849
28.0489
21.0527
19.6596
19.3782
19.3141
19.3064
19.3084
19.3114
19.3149
19.3107
294.554
294.548
294.551
294.54
294.534
294.52
294.522
294.503
294.5
294.453
289.187
489.915
56.6036
56.6437
56.6741
56.7163
56.739
56.7557
56.7376
57.1286
60.6962
78.9385
141.24
447.118
25.1142
25.122
25.1111
25.1014
25.1159
25.1407
25.1497
25.5835
28.6813
44.6367
103.159
405.046
20.4711
20.4739
20.4717
20.4715
20.4764
20.4805
20.4839
20.8167
23.2736
37.0024
90.2544
369.498
19.6833
19.6835
19.6845
19.6846
19.6854
19.6847
19.6892
19.9375
21.9236
33.7695
81.7105
339.955
19.5236
19.5228
19.5225
19.5262
19.5238
19.525
19.5241
19.7038
21.3475
31.481
75.2504
314.959
19.464
19.4595
19.457
19.4573
19.4603
19.4609
19.4656
19.6055
20.9282
29.7471
69.4179
293.419
19.4301
19.4221
19.4201
19.4213
19.4193
19.4228
19.4301
19.529
20.6348
28.246
65.2459
274.93
19.3897
19.3838
19.3836
19.3825
19.3845
19.3924
19.3989
19.4723
20.3817
27.0065
60.6875
258.763
19.3649
19.358
19.3582
19.3554
19.3565
19.3616
19.3639
19.4268
20.1703
25.8831
56.8856
244.861
19.3344
19.3321
19.3349
19.3371
19.3345
19.3364
19.3437
19.395
19.9776
24.7487
52.9395
232.444
19.3005
19.302
19.3121
19.3126
19.3111
19.3191
19.3229
19.3609
19.7836
23.5647
47.9305
223.485
61.819
35.0185
23.3241
20.2131
19.4796
19.3237
19.2837
19.281
19.2851
19.2857
19.2836
19.2786
30.0679
24.0896
20.7656
19.6429
19.3426
19.2763
19.2645
19.2644
19.2702
19.2573
19.2417
19.2402
22.0401
20.644
19.7344
19.3724
19.2689
19.2455
19.2392
19.2368
19.243
19.2372
19.2301
19.241
19.9545
19.6216
19.3687
19.2584
19.236
19.2212
19.2116
19.2155
19.2139
19.22
19.2176
19.2214
19.2738
19.2789
19.2859
19.2801
19.2787
19.2907
19.292
19.3133
19.5269
21.2582
31.7009
89.0502
19.2384
19.2394
19.2511
19.2526
19.2502
19.2585
19.2711
19.2741
19.3609
19.9721
23.2249
34.9629
19.2394
19.2325
19.2374
19.2393
19.2348
19.2463
19.2445
19.2364
19.2739
19.4682
20.3684
22.9161
19.2275
19.2107
19.1967
19.2065
19.2122
19.2242
19.2285
19.2328
19.2308
19.2848
19.5188
20.1029
19.3979
19.3017
19.2315
19.1997
19.1897
19.1847
19.1812
19.1817
19.1824
19.1831
19.1819
19.341
19.2387
19.1992
19.1775
19.1679
19.1629
19.1613
19.1599
19.1597
19.1604
19.1604
19.3797
20.5429
19.1835
19.1581
19.1496
19.1469
19.144
19.1427
19.142
19.1423
19.1425
19.2463
20.5102
26.8067
19.1573
19.1347
19.1301
19.1293
19.1276
19.1262
19.126
19.1264
19.1466
19.5825
24.4425
49.9597
19.3851
19.2277
19.1837
19.1794
19.1805
19.1842
19.1858
19.1897
19.1914
19.2073
19.2741
19.4121
20.6461
19.5256
19.2155
19.1657
19.1598
19.1607
19.1612
19.1631
19.1661
19.1707
19.1901
19.2244
27.3114
20.9255
19.3981
19.1719
19.1446
19.1425
19.1427
19.1441
19.1464
19.1482
19.1534
19.1633
51.1893
24.651
19.8381
19.2043
19.1336
19.1268
19.1268
19.1271
19.1292
19.1299
19.1313
19.1362
19.1383
19.1169
19.1135
19.1135
19.1129
19.112
19.1113
19.1129
19.1692
20.1913
32.0133
155.646
19.1226
19.1027
19.0997
19.0997
19.0994
19.0989
19.0982
19.1002
19.1683
20.3607
33.3159
148.754
19.1092
19.09
19.0872
19.0868
19.0869
19.0866
19.0862
19.0879
19.1528
20.3033
32.7646
143.822
19.0969
19.0778
19.0756
19.0757
19.0756
19.0754
19.0751
19.0764
19.1335
20.1798
31.8482
139.482
19.0856
19.0673
19.0657
19.0653
19.0648
19.0648
19.0647
19.0656
19.1144
20.0501
30.9258
135.462
19.075
19.0576
19.0562
19.0556
19.0553
19.0551
19.0551
19.056
19.0969
19.931
30.068
131.691
19.0656
19.0483
19.0468
19.0462
19.0467
19.046
19.0462
19.0466
19.0815
19.8251
29.2839
128.128
19.5594
19.6155
19.6218
19.6224
19.6234
19.6225
19.6225
19.6219
19.6515
20.331
29.2106
124.761
22.4949
22.6066
22.6229
22.6226
22.6309
22.6255
22.6293
22.6236
22.6539
23.3112
31.5774
121.562
34.6063
34.9101
34.9506
34.9587
34.9864
34.9716
34.9774
34.9517
34.9694
35.457
42.1427
118.462
72.4004
72.6351
72.6307
72.6379
72.7665
72.6918
72.7266
72.6091
72.6199
72.7277
75.4888
110.757
249.065
248.374
248.304
248.304
248.28
248.25
248.212
248.211
248.215
248.189
247.553
240.903
155.67
31.6837
20.4325
19.2454
19.1242
19.1121
19.1117
19.1118
19.1132
19.1138
19.114
19.1174
148.85
32.9803
20.5919
19.25
19.1122
19.0986
19.0977
19.0985
19.0985
19.0988
19.0989
19.1033
143.905
32.5221
20.5273
19.2309
19.0992
19.0864
19.0855
19.0867
19.0864
19.0861
19.0865
19.0898
139.564
31.6924
20.3912
19.2032
19.0861
19.0751
19.0746
19.0755
19.0754
19.0749
19.0751
19.0784
135.536
30.8308
20.2476
19.1754
19.0735
19.0648
19.0641
19.065
19.0649
19.0643
19.0646
19.067
131.75
30.0132
20.1139
19.1497
19.0621
19.0551
19.0544
19.0547
19.0548
19.0543
19.0543
19.0573
128.187
29.2576
19.9929
19.1269
19.0514
19.046
19.045
19.0458
19.045
19.0454
19.0457
19.0478
124.818
29.1154
20.4752
19.6882
19.6211
19.6159
19.6149
19.6151
19.6144
19.6148
19.6154
19.6186
121.628
31.4265
23.4133
22.6734
22.6068
22.6015
22.5958
22.5986
22.5942
22.5986
22.5986
22.5874
118.576
41.8377
35.4865
34.9239
34.8611
34.8529
34.8345
34.8466
34.8285
34.847
34.8558
34.843
111.265
75.2288
72.6313
72.4159
72.3611
72.3678
72.305
72.3676
72.3123
72.3948
72.4087
72.3615
241.627
247.609
248.158
248.202
248.233
248.254
248.266
248.26
248.299
248.303
248.271
248.395
)
;

boundaryField
{
    rotor
    {
        Cmu             0.09;
        kappa           0.41;
        E               9.8;
        type            epsilonWallFunction;
        value           nonuniform List<scalar> 
48
(
493.593
288.613
293.106
294.16
294.43
294.496
294.537
294.545
294.544
294.542
294.554
294.549
294.554
294.548
294.551
294.54
294.534
294.52
294.522
294.503
294.5
294.453
289.187
489.915
489.915
447.118
405.046
369.498
339.955
314.959
293.419
274.93
258.763
244.861
232.444
223.485
493.593
448.655
405.837
370.228
340.527
315.564
294.049
275.31
259.17
245.447
233.508
225.341
)
;
    }
    stator
    {
        Cmu             0.09;
        kappa           0.41;
        E               9.8;
        type            epsilonWallFunction;
        value           nonuniform List<scalar> 
48
(
249.065
248.374
248.304
248.304
248.28
248.25
248.212
248.211
248.215
248.189
247.553
240.903
241.627
247.609
248.158
248.202
248.233
248.254
248.266
248.26
248.299
248.303
248.271
248.395
155.67
148.85
143.905
139.564
135.536
131.75
128.187
124.818
121.628
118.576
111.265
241.627
155.646
148.754
143.822
139.482
135.462
131.691
128.128
124.761
121.562
118.462
110.757
240.903
)
;
    }
    front
    {
        type            empty;
    }
    back
    {
        type            empty;
    }
    procBoundary3to1
    {
        type            processor;
        value           nonuniform List<scalar> 
20
(
61.8593
30.2385
22.0824
19.9685
19.4005
19.239
19.1836
19.1566
19.1387
19.1231
19.1098
19.0975
19.0861
19.0752
19.0656
19.5599
22.4942
34.6107
72.372
248.993
)
;
    }
    procBoundary3to2
    {
        type            processor;
        value           nonuniform List<scalar> 
20
(
88.8576
34.8278
22.8822
20.099
19.4129
19.2239
19.1637
19.136
19.1176
19.1029
19.0897
19.0777
19.0667
19.0569
19.0475
19.6182
22.5866
34.8481
72.3915
248.472
)
;
    }
}


// ************************************************************************* //
