/*--------------------------------*- C++ -*----------------------------------*\
  =========                 |
  \\      /  F ield         | OpenFOAM: The Open Source CFD Toolbox
   \\    /   O peration     | Website:  https://openfoam.org
    \\  /    A nd           | Version:  6
     \\/     M anipulation  |
\*---------------------------------------------------------------------------*/
FoamFile
{
    version     2.0;
    format      ascii;
    class       volScalarField;
    location    "1000";
    object      k;
}
// * * * * * * * * * * * * * * * * * * * * * * * * * * * * * * * * * * * * * //

dimensions      [0 2 -2 0 0 0 0];

internalField   nonuniform List<scalar> 
768
(
0.59465
0.722754
0.745734
0.756412
0.753569
0.758069
0.758004
0.786201
0.790174
0.779662
0.775007
0.777805
0.633247
0.853825
0.942016
0.965589
0.971746
0.973845
0.974441
0.975649
0.975565
0.975078
0.974524
0.974583
0.625923
0.881047
0.963752
0.982317
0.98714
0.98856
0.988989
0.989195
0.989182
0.98913
0.989087
0.989081
0.614412
0.885894
0.967752
0.984808
0.989131
0.990342
0.990665
0.990789
0.990818
0.990852
0.99086
0.990864
0.627571
0.890974
0.969509
0.985209
0.989138
0.99013
0.990436
0.990517
0.990571
0.990564
0.990576
0.990577
0.640825
0.897432
0.971078
0.985403
0.988707
0.989626
0.989841
0.989948
0.989926
0.989944
0.989898
0.989921
0.644115
0.903796
0.972819
0.985443
0.988341
0.989059
0.989176
0.98917
0.989156
0.989081
0.989142
0.989165
0.65492
0.912855
0.975142
0.985671
0.987915
0.988416
0.988516
0.988511
0.98852
0.98841
0.988345
0.988438
0.657855
0.922098
0.977493
0.985938
0.98757
0.987923
0.987942
0.987841
0.987871
0.987854
0.987799
0.987799
0.669625
0.926724
0.97966
0.98612
0.987153
0.987355
0.987297
0.987154
0.987229
0.987226
0.987197
0.987137
0.691523
0.932273
0.981734
0.98639
0.986914
0.986868
0.986711
0.986558
0.986596
0.986596
0.986589
0.986568
0.80198
0.960124
0.985225
0.986533
0.98644
0.986187
0.986042
0.985974
0.985889
0.985799
0.985812
0.985973
0.77462
0.777391
0.780239
0.79647
0.790577
0.780123
0.781662
0.791331
0.773799
0.743545
0.699239
0.593294
0.974313
0.974581
0.97494
0.975998
0.976162
0.976356
0.976885
0.977419
0.974865
0.954907
0.855002
0.635513
0.989016
0.989064
0.989128
0.98924
0.989239
0.989286
0.989334
0.989266
0.987943
0.976296
0.899481
0.627862
0.990818
0.990825
0.990831
0.990847
0.990852
0.990867
0.990908
0.990833
0.98973
0.980301
0.909619
0.61653
0.990584
0.99056
0.990577
0.990563
0.990586
0.990578
0.990639
0.990523
0.989689
0.981309
0.914885
0.630453
0.989886
0.989929
0.989902
0.989921
0.989813
0.989896
0.98987
0.989961
0.98921
0.982058
0.920409
0.635034
0.989163
0.989156
0.989154
0.989094
0.989096
0.989115
0.989273
0.989272
0.988809
0.983185
0.925158
0.64741
0.988476
0.988367
0.988267
0.98825
0.988278
0.988394
0.988554
0.988644
0.988472
0.98434
0.935815
0.66561
0.987775
0.987727
0.987752
0.987751
0.987756
0.987814
0.987997
0.98809
0.988226
0.985993
0.942495
0.689293
0.987064
0.987016
0.987062
0.98711
0.987109
0.987264
0.987444
0.987613
0.988144
0.987289
0.95175
0.701408
0.98646
0.986398
0.986497
0.986527
0.986557
0.986738
0.9868
0.987
0.987847
0.988844
0.963641
0.726447
0.985888
0.985802
0.985939
0.985925
0.985966
0.986216
0.986336
0.986537
0.987466
0.990526
0.996289
0.77835
0.971981
0.992187
0.988365
0.986427
0.98583
0.985726
0.985598
0.985331
0.985294
0.98533
0.985282
0.985462
0.997549
0.991021
0.987321
0.985726
0.985325
0.985266
0.985117
0.984911
0.984757
0.984829
0.984837
0.984881
0.991394
0.98803
0.985874
0.985147
0.984978
0.984675
0.984276
0.984349
0.984393
0.984371
0.984577
0.984674
0.987194
0.985915
0.984808
0.984409
0.984479
0.984176
0.983785
0.983865
0.983961
0.983935
0.984159
0.984261
0.985509
0.985289
0.985121
0.985253
0.985377
0.985638
0.985812
0.986048
0.986936
0.99014
1.00114
0.943343
0.984792
0.984771
0.984697
0.984704
0.984843
0.984953
0.985047
0.985455
0.986008
0.987899
0.992745
0.996363
0.984372
0.984352
0.984354
0.984175
0.984286
0.984439
0.984588
0.984882
0.985156
0.98618
0.988052
0.990763
0.98393
0.983695
0.98375
0.983869
0.983944
0.983954
0.983954
0.984279
0.984537
0.984859
0.985777
0.986857
0.985061
0.984341
0.983846
0.983662
0.983608
0.983471
0.983358
0.983365
0.983403
0.983409
0.983405
0.983138
0.984
0.983466
0.983227
0.983121
0.983078
0.983019
0.982983
0.982965
0.982979
0.982973
0.982602
0.980584
0.98337
0.98291
0.98276
0.98269
0.982672
0.982647
0.982641
0.982622
0.982623
0.982437
0.980226
0.969637
0.982924
0.982488
0.98237
0.982329
0.982328
0.98231
0.982308
0.982298
0.982266
0.981482
0.973474
0.923141
0.983009
0.983208
0.983303
0.983333
0.983375
0.983428
0.983467
0.983565
0.983685
0.983876
0.984241
0.984686
0.98026
0.982177
0.982811
0.982932
0.98297
0.983007
0.983033
0.983077
0.983154
0.983246
0.983392
0.983595
0.968553
0.979036
0.982019
0.982535
0.982613
0.98264
0.982657
0.982694
0.982722
0.982772
0.982831
0.982944
0.919887
0.970743
0.980607
0.982086
0.982279
0.982312
0.98233
0.982352
0.982356
0.982388
0.982413
0.982505
0.982552
0.982142
0.982046
0.98202
0.982029
0.982014
0.982004
0.981999
0.981897
0.980169
0.959424
0.762205
0.982232
0.981837
0.981762
0.981743
0.981761
0.981743
0.981734
0.981732
0.981595
0.979406
0.952468
0.701899
0.981953
0.981566
0.981514
0.9815
0.98151
0.981487
0.981484
0.981481
0.981343
0.979108
0.951685
0.698685
0.981703
0.981319
0.981275
0.981273
0.981279
0.981258
0.98126
0.981253
0.98113
0.979028
0.952811
0.70251
0.981471
0.981102
0.981066
0.98106
0.981065
0.981044
0.981052
0.981039
0.980931
0.979011
0.954351
0.707043
0.981259
0.980901
0.98087
0.980867
0.980866
0.980849
0.980854
0.980847
0.980748
0.979015
0.955902
0.711987
0.981
0.980631
0.980598
0.980583
0.980596
0.980574
0.980588
0.980575
0.980496
0.978923
0.957257
0.716944
0.97986
0.979383
0.979325
0.979309
0.97933
0.97931
0.979326
0.979311
0.979246
0.977779
0.957216
0.72179
0.97344
0.972561
0.972443
0.972344
0.972474
0.97237
0.972466
0.972387
0.972374
0.970796
0.949846
0.723913
0.944123
0.942103
0.941718
0.941608
0.941708
0.941649
0.941709
0.941655
0.941665
0.939945
0.916581
0.707188
0.826917
0.822169
0.821358
0.821101
0.820994
0.82081
0.820681
0.820535
0.820656
0.819232
0.796869
0.643928
0.523512
0.522749
0.52209
0.521565
0.520842
0.519913
0.519023
0.517926
0.517383
0.516991
0.511858
0.472085
0.762172
0.956794
0.978889
0.981637
0.981967
0.982009
0.982018
0.982034
0.982033
0.982059
0.982072
0.982138
0.70454
0.94969
0.977898
0.981284
0.981681
0.98173
0.981733
0.981753
0.98175
0.981768
0.981764
0.981846
0.700996
0.948711
0.977589
0.981034
0.98143
0.981475
0.981478
0.981505
0.981502
0.981505
0.981512
0.98157
0.703719
0.949702
0.977577
0.980833
0.981204
0.981242
0.981248
0.981272
0.981273
0.981266
0.981265
0.981337
0.70825
0.951233
0.977668
0.980669
0.980995
0.981037
0.981033
0.981052
0.981056
0.981047
0.981056
0.981104
0.712833
0.952813
0.977778
0.980512
0.980805
0.98084
0.980839
0.980849
0.980854
0.980843
0.980844
0.980906
0.717691
0.954266
0.977798
0.980288
0.98054
0.980576
0.980566
0.980586
0.980574
0.980573
0.98058
0.980623
0.722441
0.954401
0.976748
0.979062
0.979289
0.979326
0.979317
0.979338
0.979314
0.979328
0.979323
0.979368
0.725016
0.947526
0.969828
0.972207
0.972411
0.972501
0.972437
0.972536
0.97243
0.972538
0.972483
0.972529
0.709697
0.915494
0.939164
0.941632
0.94187
0.941981
0.941962
0.942056
0.941925
0.942045
0.942011
0.941978
0.647552
0.797891
0.818995
0.821089
0.821379
0.821632
0.821935
0.821968
0.821648
0.822136
0.821888
0.821557
0.473329
0.511997
0.516708
0.517165
0.517622
0.518009
0.519412
0.519767
0.519719
0.521292
0.521407
0.520559
)
;

boundaryField
{
    rotor
    {
        type            kqRWallFunction;
        value           nonuniform List<scalar> 
48
(
0.59465
0.722754
0.745734
0.756412
0.753569
0.758069
0.758004
0.786201
0.790174
0.779662
0.775007
0.777805
0.77462
0.777391
0.780239
0.79647
0.790577
0.780123
0.781662
0.791331
0.773799
0.743545
0.699239
0.593294
0.593294
0.635513
0.627862
0.61653
0.630453
0.635034
0.64741
0.66561
0.689293
0.701408
0.726447
0.77835
0.59465
0.633247
0.625923
0.614412
0.627571
0.640825
0.644115
0.65492
0.657855
0.669625
0.691523
0.80198
)
;
    }
    stator
    {
        type            kqRWallFunction;
        value           nonuniform List<scalar> 
48
(
0.523512
0.522749
0.52209
0.521565
0.520842
0.519913
0.519023
0.517926
0.517383
0.516991
0.511858
0.472085
0.473329
0.511997
0.516708
0.517165
0.517622
0.518009
0.519412
0.519767
0.519719
0.521292
0.521407
0.520559
0.762172
0.70454
0.700996
0.703719
0.70825
0.712833
0.717691
0.722441
0.725016
0.709697
0.647552
0.473329
0.762205
0.701899
0.698685
0.70251
0.707043
0.711987
0.716944
0.72179
0.723913
0.707188
0.643928
0.472085
)
;
    }
    front
    {
        type            empty;
    }
    back
    {
        type            empty;
    }
    procBoundary3to1
    {
        type            processor;
        value           nonuniform List<scalar> 
20
(
0.971125
0.996809
0.99117
0.987154
0.985067
0.984009
0.983379
0.982922
0.982569
0.982247
0.981979
0.981725
0.981496
0.981271
0.981011
0.979866
0.973404
0.944056
0.82682
0.52374
)
;
    }
    procBoundary3to2
    {
        type            processor;
        value           nonuniform List<scalar> 
20
(
0.944947
0.997219
0.991021
0.986757
0.984677
0.983585
0.982945
0.982488
0.982129
0.981827
0.981557
0.981316
0.981093
0.980888
0.98061
0.979354
0.97252
0.942033
0.821716
0.520664
)
;
    }
}


// ************************************************************************* //
