/*--------------------------------*- C++ -*----------------------------------*\
  =========                 |
  \\      /  F ield         | OpenFOAM: The Open Source CFD Toolbox
   \\    /   O peration     | Website:  https://openfoam.org
    \\  /    A nd           | Version:  6
     \\/     M anipulation  |
\*---------------------------------------------------------------------------*/
FoamFile
{
    version     2.0;
    format      ascii;
    class       volScalarField;
    location    "1000";
    object      nut;
}
// * * * * * * * * * * * * * * * * * * * * * * * * * * * * * * * * * * * * * //

dimensions      [0 2 -1 0 0 0 0];

internalField   nonuniform List<scalar> 
768
(
6.44757e-05
0.000162895
0.00017076
0.000175056
0.000173583
0.000175623
0.000175568
0.000188868
0.000190782
0.000185741
0.000183523
0.000184853
8.04406e-05
0.000488055
0.000978091
0.00128448
0.00141644
0.00146878
0.00149028
0.00150432
0.00150943
0.00151106
0.00151045
0.00151052
8.68825e-05
0.000641817
0.00171557
0.00272617
0.00324578
0.00343405
0.00349166
0.00350857
0.0035115
0.00351017
0.00350853
0.0035071
9.17682e-05
0.000706163
0.0020195
0.00333565
0.00401004
0.00423578
0.00429794
0.00431437
0.00431818
0.00431811
0.00431773
0.00431712
0.000104092
0.000769534
0.00219646
0.0035623
0.00421392
0.00441793
0.00447083
0.00448379
0.00448686
0.00448724
0.00448698
0.00448684
0.000117121
0.000836759
0.00234392
0.00369639
0.00428891
0.00446322
0.00450608
0.00451511
0.00451647
0.00451687
0.00451666
0.0045167
0.000126984
0.000905802
0.00248336
0.00380105
0.00433493
0.00448193
0.00451604
0.0045222
0.00452298
0.00452231
0.00452231
0.00452366
0.000140216
0.000983321
0.00261715
0.0038916
0.00436825
0.0044929
0.00452102
0.00452607
0.00452681
0.0045252
0.00452396
0.00452495
0.000150286
0.0010562
0.00273411
0.00396243
0.00439463
0.00450094
0.00452414
0.00452872
0.00453006
0.00452907
0.00452898
0.00452892
0.000164418
0.00110521
0.00282323
0.00401758
0.0044136
0.00450677
0.00452683
0.00452994
0.00453152
0.00453176
0.00453009
0.00452834
0.000184313
0.00113037
0.00289695
0.00406744
0.00443041
0.00451233
0.00452837
0.00452966
0.00452987
0.00453151
0.00453333
0.00453213
0.000256879
0.00129664
0.00311456
0.00416062
0.00445461
0.00451697
0.00453063
0.00453182
0.00453058
0.00452904
0.00452833
0.00453079
0.000183339
0.000184657
0.00018601
0.000193837
0.000190984
0.000185975
0.000186708
0.000191368
0.000182984
0.000168982
0.000152165
6.46638e-05
0.00150937
0.00150913
0.00150943
0.00151158
0.00151149
0.00151164
0.00151376
0.00150505
0.00140919
0.00103962
0.000465821
8.12961e-05
0.00350534
0.00350459
0.00350656
0.00350871
0.00350668
0.00350355
0.00350264
0.00344278
0.00306272
0.00192182
0.000705859
8.75924e-05
0.00431609
0.00431555
0.00431606
0.00431624
0.00431526
0.00431452
0.00431417
0.00424455
0.00378802
0.00233739
0.000825076
9.25847e-05
0.00448669
0.00448645
0.00448636
0.00448622
0.00448624
0.00448633
0.00448586
0.00442895
0.00402094
0.00256643
0.00092193
0.000105227
0.00451702
0.00451762
0.00451744
0.00451674
0.00451632
0.00451679
0.00451677
0.00447639
0.00412545
0.00275721
0.0010132
0.000115234
0.00452425
0.00452522
0.00452579
0.00452516
0.00452449
0.00452452
0.00452488
0.00449257
0.00420471
0.00292461
0.00110969
0.000128562
0.00452585
0.0045267
0.00452625
0.00452583
0.00452655
0.00452681
0.00452655
0.00450445
0.00426158
0.00308728
0.00120801
0.000145031
0.00452885
0.0045298
0.00453007
0.0045303
0.00452988
0.00452856
0.00452873
0.00451252
0.00431235
0.00323983
0.00131735
0.000165252
0.00452812
0.00452929
0.00452965
0.00453076
0.00453049
0.00453073
0.00453184
0.00451871
0.00435683
0.00338933
0.00143313
0.000180827
0.00452971
0.00452967
0.00452994
0.00452971
0.00453057
0.00453181
0.00453065
0.00452049
0.00439622
0.00355587
0.00157868
0.000204331
0.0045324
0.00453126
0.00453016
0.0045299
0.00453063
0.00453105
0.00453128
0.00452423
0.00443589
0.00374724
0.00186381
0.000243975
0.00137542
0.00253007
0.0037694
0.0043325
0.0044902
0.00452548
0.00453369
0.00453187
0.00453057
0.00453076
0.00453081
0.00453363
0.00297857
0.00366926
0.00422488
0.00445193
0.00451738
0.00453238
0.00453378
0.00453189
0.00452913
0.00453281
0.00453656
0.00453734
0.00401348
0.00425587
0.00443263
0.0045088
0.00453147
0.00453418
0.004532
0.00453324
0.00453218
0.00453334
0.00453692
0.00453524
0.00439549
0.00445848
0.00450656
0.00452871
0.00453462
0.00453531
0.00453398
0.00453379
0.00453506
0.00453338
0.00453602
0.00453606
0.0045352
0.00453197
0.00452879
0.00453135
0.00453283
0.00453241
0.0045337
0.00453088
0.00448939
0.00415058
0.00284553
0.000899387
0.00453693
0.00453649
0.00453308
0.00453277
0.00453463
0.00453368
0.00453159
0.00453464
0.00451937
0.00439789
0.00381914
0.00255547
0.00453284
0.00453427
0.00453313
0.00453105
0.00453311
0.00453181
0.00453363
0.00453824
0.00453192
0.00449603
0.00431366
0.00385514
0.00453155
0.00453336
0.00453718
0.00453596
0.00453531
0.00453256
0.00453154
0.00453352
0.00453637
0.00452664
0.00448072
0.00436005
0.00450208
0.00451791
0.00452984
0.00453565
0.00453753
0.00453744
0.00453722
0.00453717
0.00453735
0.00453724
0.00453749
0.00449773
0.00452956
0.00453397
0.0045369
0.00453819
0.00453897
0.00453881
0.00453881
0.00453867
0.00453864
0.0045386
0.00448385
0.00421259
0.00453679
0.00453855
0.00453919
0.00453917
0.00453969
0.00453978
0.00453988
0.00453963
0.00453961
0.00451341
0.00421624
0.00315659
0.00453887
0.0045402
0.0045402
0.00454003
0.00454042
0.00454058
0.00454061
0.00454041
0.00453533
0.00442729
0.00348936
0.00153518
0.00448632
0.00452487
0.00453611
0.00453742
0.00453753
0.00453716
0.00453714
0.00453712
0.00453782
0.00453582
0.00452346
0.00449537
0.00418879
0.00444649
0.00452408
0.00453697
0.0045387
0.00453885
0.00453894
0.00453892
0.00453892
0.00453867
0.00453542
0.00452921
0.00309133
0.00412252
0.00447427
0.00453183
0.00453901
0.00453976
0.00453987
0.00453988
0.0045396
0.00453961
0.00453894
0.00453764
0.00148776
0.00344046
0.00436247
0.00452005
0.00453854
0.00454046
0.0045406
0.00454075
0.00454028
0.00454041
0.00454031
0.00454001
0.00453994
0.00454122
0.00454116
0.00454091
0.00454115
0.00454121
0.00454127
0.00454085
0.00452659
0.00428233
0.00258781
0.000335929
0.00454071
0.00454178
0.0045418
0.00454164
0.00454187
0.00454183
0.00454191
0.0045414
0.00452402
0.00424009
0.00245071
0.000298074
0.00454131
0.00454229
0.00454249
0.00454246
0.00454253
0.00454237
0.00454246
0.00454202
0.00452536
0.00424949
0.00248785
0.000305478
0.00454193
0.00454291
0.00454303
0.00454299
0.00454307
0.00454292
0.00454302
0.00454263
0.00452794
0.0042748
0.00256549
0.000318442
0.00454247
0.0045434
0.00454345
0.00454349
0.00454365
0.00454347
0.00454356
0.00454322
0.00453064
0.00430231
0.00265056
0.000332137
0.00454302
0.00454386
0.0045439
0.00454401
0.00454409
0.00454398
0.00454402
0.00454375
0.00453308
0.00432805
0.00273505
0.000346443
0.00454285
0.00454358
0.00454363
0.00454364
0.00454362
0.0045436
0.00454367
0.00454347
0.00453442
0.00435036
0.00281625
0.000361052
0.0044179
0.00440098
0.00439903
0.00439877
0.00439872
0.00439873
0.00439888
0.0043989
0.00439167
0.00423218
0.00282307
0.000375826
0.00379121
0.00376567
0.00376203
0.00376132
0.00376094
0.00376103
0.00376114
0.00376149
0.00375635
0.0036386
0.00257142
0.000387987
0.00231816
0.00228817
0.00228365
0.00228259
0.00228127
0.00228195
0.00228186
0.00228327
0.00228216
0.00224257
0.00179417
0.000379956
0.000850012
0.000837565
0.000835964
0.000835357
0.000833664
0.000834146
0.000833485
0.000834537
0.000834659
0.000830533
0.000757065
0.000336935
9.90335e-05
9.90196e-05
9.87981e-05
9.85998e-05
9.83361e-05
9.79975e-05
9.7677e-05
9.72653e-05
9.70597e-05
9.69228e-05
9.52519e-05
8.32605e-05
0.000335849
0.00260042
0.00422073
0.00450627
0.00453789
0.00454114
0.00454133
0.00454146
0.0045411
0.00454121
0.00454127
0.00454107
0.000300126
0.00246123
0.00417958
0.00450197
0.00453808
0.00454176
0.00454201
0.00454201
0.00454198
0.00454208
0.00454202
0.00454173
0.000307326
0.00249076
0.00419009
0.00450414
0.00453885
0.00454231
0.00454256
0.00454252
0.00454255
0.00454265
0.00454262
0.00454237
0.000319351
0.00256131
0.00421794
0.00450878
0.00453988
0.00454285
0.00454302
0.00454302
0.00454306
0.00454312
0.00454307
0.00454294
0.00033309
0.00264139
0.00424866
0.0045138
0.00454094
0.00454339
0.00454353
0.0045435
0.00454355
0.00454361
0.00454362
0.00454351
0.000347112
0.00272236
0.00427786
0.00451842
0.0045419
0.00454389
0.00454405
0.00454406
0.0045441
0.0045441
0.00454411
0.00454396
0.000361637
0.00280119
0.00430393
0.00452175
0.00454199
0.00454361
0.00454375
0.00454376
0.00454383
0.00454374
0.00454372
0.00454361
0.000376331
0.00281567
0.00419352
0.00438184
0.00439887
0.00440037
0.00440052
0.00440066
0.0044006
0.00440062
0.00440046
0.00440014
0.000388959
0.00257116
0.00361551
0.00375183
0.00376446
0.00376605
0.00376649
0.0037668
0.00376671
0.00376681
0.00376639
0.00376861
0.00038229
0.00180296
0.00223698
0.00228498
0.00229025
0.00229133
0.00229245
0.00229211
0.00229267
0.00229203
0.00229129
0.00229197
0.000339181
0.000761632
0.000831153
0.000837894
0.000839121
0.000839561
0.000840909
0.00084025
0.000840238
0.000840277
0.000839609
0.000839479
8.34495e-05
9.52822e-05
9.68287e-05
9.6983e-05
9.71425e-05
9.72794e-05
9.7802e-05
9.79381e-05
9.7905e-05
9.84969e-05
9.85528e-05
9.81837e-05
)
;

boundaryField
{
    rotor
    {
        type            nutkWallFunction;
        Cmu             0.09;
        kappa           0.41;
        E               9.8;
        value           nonuniform List<scalar> 
48
(
1.12749e-05
2.82063e-05
2.87137e-05
2.89465e-05
2.88847e-05
2.89825e-05
2.89811e-05
2.95863e-05
2.96706e-05
2.94471e-05
2.93476e-05
2.94074e-05
2.93393e-05
2.93986e-05
2.94594e-05
2.98037e-05
2.96792e-05
2.94569e-05
2.94898e-05
2.96951e-05
2.93217e-05
2.86658e-05
2.76775e-05
1.12549e-05
1.12549e-05
1.39653e-05
1.59049e-05
1.77272e-05
2.00001e-05
2.209e-05
2.43471e-05
2.67523e-05
2.93142e-05
3.16212e-05
3.42763e-05
3.76718e-05
1.12749e-05
1.39298e-05
1.58716e-05
1.76875e-05
1.99427e-05
2.22123e-05
2.42736e-05
2.65027e-05
2.85478e-05
3.08136e-05
3.33623e-05
3.82811e-05
)
;
    }
    stator
    {
        type            nutkWallFunction;
        Cmu             0.09;
        kappa           0.41;
        E               9.8;
        value           nonuniform List<scalar> 
48
(
2.27066e-05
2.26866e-05
2.26694e-05
2.26556e-05
2.26366e-05
2.26122e-05
2.25888e-05
2.25599e-05
2.25456e-05
2.25353e-05
2.23996e-05
2.13207e-05
2.13552e-05
2.24033e-05
2.25278e-05
2.25399e-05
2.25519e-05
2.25621e-05
2.2599e-05
2.26084e-05
2.26071e-05
2.26484e-05
2.26515e-05
2.26292e-05
5.53033e-05
5.50333e-05
5.67739e-05
5.87617e-05
6.08264e-05
6.28965e-05
6.49823e-05
6.70671e-05
6.90538e-05
7.01752e-05
6.88391e-05
2.13552e-05
5.53045e-05
5.49288e-05
5.66794e-05
5.8711e-05
6.07746e-05
6.28593e-05
6.49487e-05
6.70372e-05
6.9002e-05
7.00529e-05
6.86487e-05
2.13207e-05
)
;
    }
    front
    {
        type            empty;
    }
    back
    {
        type            empty;
    }
    procBoundary3to1
    {
        type            processor;
        value           nonuniform List<scalar> 
20
(
0.00137211
0.00295737
0.004004
0.00439204
0.00450155
0.00452959
0.00453685
0.00453901
0.00454002
0.00454073
0.00454141
0.00454197
0.00454258
0.0045431
0.00454296
0.00441783
0.00379103
0.00231754
0.000850147
9.91485e-05
)
;
    }
    procBoundary3to2
    {
        type            processor;
        value           nonuniform List<scalar> 
20
(
0.000904404
0.00256979
0.00386287
0.00436002
0.00449512
0.00452923
0.00453755
0.0045399
0.00454094
0.00454165
0.0045423
0.00454292
0.00454346
0.0045439
0.00454357
0.00440011
0.00376868
0.0022919
0.000839457
9.81928e-05
)
;
    }
}


// ************************************************************************* //
