/*--------------------------------*- C++ -*----------------------------------*\
  =========                 |
  \\      /  F ield         | OpenFOAM: The Open Source CFD Toolbox
   \\    /   O peration     | Website:  https://openfoam.org
    \\  /    A nd           | Version:  6
     \\/     M anipulation  |
\*---------------------------------------------------------------------------*/
FoamFile
{
    version     2.0;
    format      ascii;
    class       volScalarField;
    location    "2000";
    object      epsilon;
}
// * * * * * * * * * * * * * * * * * * * * * * * * * * * * * * * * * * * * * //

dimensions      [0 2 -3 0 0 0 0];

internalField   nonuniform List<scalar> 
768
(
151.634
133.464
149.828
163.117
162.789
166.78
159.083
162.51
168.672
173.449
164.108
162.663
170.454
83.629
73.0789
67.1629
63.0061
60.9246
59.335
58.8967
58.8531
58.8289
58.2939
58.1727
156.059
73.0008
49.5907
37.6554
32.1663
29.869
28.9276
28.5892
28.4812
28.4516
28.4157
28.4124
142.988
67.7046
42.3269
29.8041
24.4955
22.4389
21.6937
21.4396
21.3588
21.3417
21.3379
21.3396
135.013
65.308
39.4913
27.257
22.3244
20.5061
19.8834
19.6847
19.6246
19.6092
19.6031
19.6012
126.158
62.5383
37.6807
26.0371
21.5081
19.9001
19.3744
19.2115
19.1673
19.1538
19.148
19.1406
120.578
60.7519
36.4067
25.2535
21.0644
19.6359
19.1802
19.0486
19.0106
19.0017
18.9888
18.9849
112.105
59.5336
35.5416
24.6923
20.7628
19.4682
19.07
18.9578
18.9279
18.9122
18.9009
18.8994
112.655
59.7857
35.1498
24.3227
20.5443
19.3425
18.9833
18.886
18.8637
18.8464
18.8364
18.8332
104.587
60.3471
35.0625
24.0738
20.3758
19.2376
18.9059
18.8187
18.8023
18.7876
18.7756
18.7739
104.605
63.054
35.0278
23.7808
20.1968
19.1343
18.8318
18.7562
18.7416
18.7364
18.734
18.7311
150.307
68.6101
33.5398
23.0044
19.8971
19.005
18.755
18.7026
18.6974
18.6926
18.6817
18.6757
166.457
169.347
161.79
161.416
164.201
169.759
164.246
160.765
153.338
139.368
115.853
141.805
58.2936
58.4094
57.9454
57.8542
58.1036
58.4235
58.4341
59.6286
63.9525
72.7831
91.6807
157.489
28.4297
28.4446
28.412
28.4073
28.4432
28.5347
28.9105
30.5795
35.9385
48.5474
75.4203
152.159
21.3432
21.346
21.3444
21.3487
21.3613
21.4186
21.7267
23.1061
27.7598
39.6771
66.1611
141.088
19.6004
19.6013
19.6007
19.6025
19.6088
19.6487
19.8854
20.9969
25.0069
36.0546
62.0536
132.694
19.1415
19.1405
19.1391
19.1356
19.1391
19.1688
19.3516
20.2489
23.7099
33.8562
58.9273
123.468
18.9813
18.9842
18.9834
18.9833
18.9829
19.006
19.1468
19.8759
22.8611
32.1402
55.825
119.729
18.8969
18.8987
18.8998
18.898
18.899
18.9183
19.0349
19.6322
22.2098
30.7129
53.3303
117.531
18.8291
18.8339
18.8364
18.8371
18.8383
18.8554
18.9507
19.4422
21.6695
29.4344
51.1197
119.428
18.7731
18.7701
18.7685
18.7773
18.7844
18.7997
18.8795
19.2867
21.1924
28.2541
49.3091
119.179
18.7253
18.7234
18.7143
18.716
18.7238
18.74
18.8121
19.1453
20.7518
27.056
47.7745
124.356
18.6671
18.6632
18.6607
18.6635
18.6752
18.6905
18.7487
19.0044
20.2632
25.6462
47.0744
143.709
66.6988
41.8475
27.3101
21.4075
19.4454
18.8491
18.6772
18.6447
18.6364
18.6344
18.6354
18.6246
36.7696
28.5261
22.7621
20.0423
19.0337
18.7029
18.6027
18.586
18.5833
18.5783
18.5793
18.5867
25.1194
22.5426
20.3438
19.2114
18.753
18.5918
18.543
18.5374
18.548
18.55
18.5537
18.5693
20.8134
20.0184
19.2143
18.7731
18.5801
18.5103
18.4944
18.4898
18.4914
18.4989
18.5453
18.6615
18.6229
18.6218
18.6176
18.6193
18.6268
18.6411
18.6843
18.8507
19.6383
23.0525
36.2521
76.5337
18.5902
18.5721
18.5636
18.5681
18.5772
18.593
18.6228
18.7184
19.1194
20.7772
26.5449
40.9591
18.57
18.5369
18.5252
18.527
18.5292
18.5411
18.5602
18.6129
18.7984
19.4888
21.6652
26.159
18.6732
18.549
18.4984
18.4928
18.4848
18.486
18.5053
18.5325
18.6139
18.8795
19.6476
21.061
19.2804
18.9876
18.706
18.5468
18.4739
18.4458
18.4362
18.4338
18.4395
18.481
18.7094
19.2521
18.7177
18.5984
18.4948
18.4362
18.4078
18.3957
18.3906
18.3907
18.4128
18.5845
19.4557
21.3815
18.4999
18.4383
18.3961
18.3735
18.3617
18.3562
18.3538
18.3584
18.4242
18.938
21.4426
26.7829
18.4034
18.3611
18.3403
18.3308
18.3258
18.323
18.3222
18.3345
18.4797
19.5911
25.0156
40.2205
19.3132
18.7778
18.5164
18.448
18.4349
18.4385
18.4493
18.4621
18.498
18.6062
18.8857
19.3323
21.5366
19.5803
18.6758
18.4443
18.4002
18.397
18.4011
18.4074
18.4234
18.4655
18.5642
18.7084
27.0912
21.4762
19.063
18.4822
18.3751
18.3607
18.3613
18.3646
18.3715
18.3881
18.4227
18.4733
41.3925
24.9149
19.6764
18.5526
18.3577
18.3297
18.3274
18.329
18.3322
18.3381
18.351
18.3726
18.3511
18.315
18.302
18.2981
18.2959
18.2941
18.2944
18.3148
18.5427
20.2581
30.0754
90.8143
18.3151
18.282
18.2723
18.2705
18.2696
18.2682
18.2688
18.2926
18.5519
20.4506
30.5021
67.3782
18.2871
18.2554
18.2474
18.2463
18.246
18.245
18.2458
18.2688
18.5212
20.381
30.1079
63.1271
18.2636
18.2337
18.2271
18.2262
18.2264
18.2258
18.2263
18.2463
18.4748
20.2106
29.5055
61.8646
18.2536
18.2256
18.2201
18.2195
18.22
18.2194
18.2197
18.2366
18.4376
20.0287
28.8769
60.6316
18.3181
18.3005
18.2974
18.2975
18.2979
18.2975
18.2976
18.3114
18.4869
19.9401
28.3467
59.7665
18.7165
18.7213
18.7239
18.7255
18.7262
18.7261
18.7256
18.7365
18.8904
20.221
28.1371
58.7966
20.1474
20.1881
20.2007
20.2052
20.2067
20.207
20.2044
20.2115
20.3455
21.5488
28.7499
57.6612
23.8416
23.8827
23.9026
23.9087
23.9084
23.91
23.8999
23.9025
24.0063
25.0103
30.8885
55.1339
30.2549
30.1387
30.1344
30.1125
30.1123
30.1064
30.0806
30.075
30.1281
30.7235
34.0572
49.104
40.5298
40.38
40.3518
40.2241
40.1931
40.1762
40.0807
40.0519
40.0268
40.0848
39.9053
37.3625
69.3714
69.0309
68.7551
68.2826
67.8379
67.6442
67.4773
67.2387
67.0511
66.6957
63.0334
44.6621
89.4088
29.5164
20.3021
18.6178
18.3413
18.3022
18.2979
18.2985
18.3
18.3022
18.3065
18.3189
67.9282
30.1252
20.5004
18.6283
18.3198
18.2765
18.2716
18.2717
18.2727
18.2727
18.2744
18.2834
63.7552
29.8327
20.4468
18.5968
18.2945
18.2526
18.2477
18.2481
18.2485
18.2485
18.2483
18.2554
62.1387
29.3073
20.2896
18.5466
18.2687
18.2311
18.2268
18.2274
18.2276
18.2271
18.227
18.2332
61.0462
28.7458
20.116
18.5037
18.2559
18.2236
18.2201
18.2205
18.2207
18.2197
18.2194
18.2251
60.0278
28.2532
20.027
18.5455
18.3262
18.2987
18.2956
18.296
18.2957
18.2949
18.2949
18.2999
59.245
28.0564
20.2957
18.938
18.7427
18.7182
18.7151
18.7147
18.7143
18.7139
18.7146
18.7168
58.1563
28.6576
21.5949
20.3732
20.199
20.1755
20.1709
20.1691
20.1691
20.1696
20.1716
20.1723
55.6507
30.8151
25.0209
24.0025
23.8568
23.8305
23.8281
23.8203
23.827
23.8236
23.8312
23.836
49.4882
34.1348
30.715
30.09
29.9939
29.9756
29.9806
29.9809
30.0011
29.9785
29.9985
30.0405
37.5717
39.9158
40.041
39.9603
39.9418
39.9532
40.0174
40.0425
40.0951
40.0435
40.0804
40.2199
45.0195
63.2625
66.7843
67.1545
67.2497
67.4341
67.7435
67.9488
68.0578
68.2257
68.322
68.4017
)
;

boundaryField
{
    rotor
    {
        Cmu             0.09;
        kappa           0.41;
        E               9.8;
        type            epsilonWallFunction;
        value           nonuniform List<scalar> 
48
(
151.634
133.464
149.828
163.117
162.789
166.78
159.083
162.51
168.672
173.449
164.108
162.663
166.457
169.347
161.79
161.416
164.201
169.759
164.246
160.765
153.338
139.368
115.853
141.805
151.634
170.454
156.059
142.988
135.013
126.158
120.578
112.105
112.655
104.587
104.605
150.307
141.805
157.489
152.159
141.088
132.694
123.468
119.729
117.531
119.428
119.179
124.356
143.709
)
;
    }
    stator
    {
        Cmu             0.09;
        kappa           0.41;
        E               9.8;
        type            epsilonWallFunction;
        value           nonuniform List<scalar> 
48
(
69.3714
69.0309
68.7551
68.2826
67.8379
67.6442
67.4773
67.2387
67.0511
66.6957
63.0334
44.6621
45.0195
63.2625
66.7843
67.1545
67.2497
67.4341
67.7435
67.9488
68.0578
68.2257
68.322
68.4017
89.4088
67.9282
63.7552
62.1387
61.0462
60.0278
59.245
58.1563
55.6507
49.4882
37.5717
45.0195
90.8143
67.3782
63.1271
61.8646
60.6316
59.7665
58.7966
57.6612
55.1339
49.104
37.3625
44.6621
)
;
    }
    front
    {
        type            empty;
    }
    back
    {
        type            empty;
    }
    procBoundary2to0
    {
        type            processor;
        value           nonuniform List<scalar> 
20
(
76.8201
41.0413
26.162
21.0561
19.329
18.7081
18.4743
18.3743
18.3206
18.2852
18.257
18.2349
18.2267
18.3018
18.7184
20.1739
23.8387
30.0556
40.2799
68.6061
)
;
    }
    procBoundary2to3
    {
        type            processor;
        value           nonuniform List<scalar> 
20
(
67.0165
36.7938
25.1349
20.824
19.2863
18.7204
18.5007
18.4035
18.3504
18.3142
18.2858
18.2625
18.2519
18.3167
18.7151
20.1463
23.838
30.2381
40.471
69.1889
)
;
    }
}


// ************************************************************************* //
