/*--------------------------------*- C++ -*----------------------------------*\
  =========                 |
  \\      /  F ield         | OpenFOAM: The Open Source CFD Toolbox
   \\    /   O peration     | Website:  https://openfoam.org
    \\  /    A nd           | Version:  6
     \\/     M anipulation  |
\*---------------------------------------------------------------------------*/
FoamFile
{
    version     2.0;
    format      ascii;
    class       volScalarField;
    location    "2000";
    object      k;
}
// * * * * * * * * * * * * * * * * * * * * * * * * * * * * * * * * * * * * * //

dimensions      [0 2 -2 0 0 0 0];

internalField   nonuniform List<scalar> 
768
(
0.280115
0.437166
0.502056
0.546685
0.555395
0.566021
0.549466
0.555188
0.570159
0.582908
0.566057
0.560363
0.385998
0.709173
0.847777
0.904353
0.925025
0.934927
0.938203
0.941751
0.943921
0.946085
0.945052
0.945203
0.396693
0.767398
0.908031
0.953903
0.969256
0.97482
0.976721
0.977618
0.977967
0.978168
0.978008
0.977969
0.409026
0.791184
0.923538
0.962613
0.975091
0.979422
0.980857
0.981364
0.981501
0.981561
0.981492
0.981448
0.414143
0.803024
0.931096
0.965665
0.976343
0.979933
0.981067
0.981422
0.981475
0.981466
0.981367
0.981322
0.421598
0.815434
0.937376
0.967656
0.976672
0.979471
0.980346
0.980459
0.980483
0.980418
0.9804
0.980266
0.426331
0.830628
0.944709
0.969978
0.976841
0.978911
0.979339
0.979421
0.979288
0.979258
0.979056
0.978996
0.429708
0.845359
0.953345
0.972689
0.977187
0.978317
0.978462
0.978247
0.977986
0.977906
0.977852
0.977784
0.453294
0.859722
0.963105
0.975962
0.977688
0.977797
0.977551
0.977153
0.97684
0.976588
0.976494
0.976528
0.448572
0.861235
0.97164
0.979296
0.978266
0.977194
0.976509
0.97594
0.975578
0.975323
0.975253
0.975312
0.455204
0.862155
0.978668
0.982053
0.978613
0.976525
0.975449
0.974795
0.974391
0.974214
0.974017
0.973996
0.59177
0.916746
0.98691
0.983337
0.978156
0.975517
0.97418
0.973518
0.973331
0.973245
0.972998
0.972926
0.564605
0.574722
0.562076
0.557823
0.561613
0.570261
0.555354
0.542802
0.51714
0.46998
0.387436
0.262737
0.945112
0.945945
0.944898
0.944586
0.944935
0.945899
0.943787
0.935852
0.909165
0.835083
0.642283
0.352784
0.977877
0.97788
0.977721
0.977691
0.977706
0.977734
0.977124
0.974133
0.96208
0.918373
0.768653
0.392529
0.981364
0.981333
0.981304
0.981324
0.981326
0.981324
0.981026
0.97929
0.971384
0.938817
0.80826
0.404161
0.981285
0.981277
0.981196
0.981148
0.981154
0.981216
0.981161
0.980051
0.974022
0.946521
0.823179
0.411634
0.980249
0.980184
0.980179
0.980115
0.980122
0.980176
0.98026
0.979575
0.974949
0.951587
0.835287
0.413783
0.978907
0.978892
0.978817
0.978869
0.978901
0.979013
0.979121
0.978907
0.975846
0.956673
0.846055
0.419065
0.977687
0.977531
0.977496
0.977483
0.977545
0.977735
0.978126
0.978458
0.976901
0.962904
0.865298
0.432521
0.976456
0.976254
0.976173
0.976213
0.976302
0.976621
0.977186
0.977983
0.978263
0.96921
0.881542
0.460339
0.975243
0.975079
0.974902
0.974918
0.975098
0.975519
0.976293
0.977634
0.979471
0.976331
0.90685
0.492892
0.97391
0.973817
0.973763
0.973832
0.974055
0.97449
0.975355
0.977059
0.980583
0.983748
0.939528
0.542067
0.972698
0.972634
0.972659
0.972699
0.972992
0.973445
0.974296
0.97619
0.980877
0.992397
1.00094
0.644794
0.938563
0.998637
0.994442
0.982546
0.97671
0.974107
0.972883
0.972383
0.972201
0.971982
0.971923
0.971973
1.01121
1.0034
0.989069
0.978987
0.974525
0.972554
0.971499
0.97103
0.970884
0.970807
0.970936
0.970938
1.00191
0.991324
0.981082
0.97504
0.97227
0.971057
0.97028
0.969913
0.969941
0.969964
0.969982
0.969685
0.986145
0.980541
0.974973
0.971823
0.970266
0.969527
0.969059
0.96889
0.968877
0.968996
0.968826
0.968187
0.971658
0.971615
0.971683
0.9717
0.971872
0.972222
0.97299
0.974753
0.979327
0.992025
1.02437
0.925939
0.970736
0.970728
0.970834
0.970844
0.970883
0.971109
0.971713
0.973043
0.976272
0.984994
1.00842
1.02497
0.969532
0.969684
0.969622
0.969603
0.969825
0.970124
0.970576
0.971412
0.973347
0.978178
0.989964
1.00406
0.967995
0.968375
0.968588
0.968695
0.968824
0.969074
0.969528
0.970037
0.971055
0.973449
0.978766
0.985893
0.976546
0.973576
0.970937
0.969433
0.968657
0.968245
0.967996
0.967906
0.967877
0.967702
0.966706
0.964297
0.971494
0.969814
0.968524
0.967796
0.967421
0.967197
0.967068
0.967022
0.96694
0.966226
0.962568
0.953752
0.968804
0.967683
0.967005
0.966648
0.966471
0.966353
0.966286
0.966248
0.966001
0.963901
0.952858
0.922885
0.967239
0.966363
0.965961
0.965779
0.965697
0.965631
0.965594
0.965543
0.964972
0.960227
0.932781
0.835328
0.963984
0.966187
0.967375
0.967739
0.96789
0.968079
0.968359
0.968674
0.969253
0.970471
0.972823
0.975993
0.95271
0.961446
0.965609
0.966769
0.967058
0.967205
0.967354
0.967541
0.967859
0.968442
0.969473
0.970863
0.920313
0.950782
0.962727
0.96567
0.966271
0.966423
0.966507
0.966617
0.966777
0.967055
0.967498
0.968152
0.827655
0.930002
0.958446
0.964424
0.965519
0.965719
0.965778
0.965845
0.965921
0.966028
0.96623
0.966587
0.966231
0.965453
0.965178
0.965083
0.965049
0.965008
0.964986
0.964906
0.963949
0.955944
0.901724
0.58634
0.965475
0.964759
0.964548
0.96449
0.96448
0.964454
0.964438
0.96434
0.963157
0.953197
0.882408
0.456631
0.96488
0.964192
0.964014
0.963974
0.963976
0.96396
0.963949
0.963849
0.962624
0.952197
0.877411
0.437208
0.964352
0.963698
0.963544
0.963517
0.96352
0.96351
0.963499
0.963406
0.96225
0.952189
0.878728
0.439004
0.963845
0.963189
0.963054
0.963029
0.963035
0.963027
0.963019
0.962938
0.961891
0.952502
0.882042
0.443039
0.962994
0.962319
0.962189
0.962169
0.962166
0.962162
0.962154
0.962083
0.961149
0.952454
0.885182
0.448234
0.960472
0.959632
0.959472
0.959445
0.959434
0.959437
0.959431
0.959373
0.958522
0.950325
0.885628
0.451761
0.951874
0.950631
0.950381
0.950323
0.950289
0.950289
0.950283
0.95024
0.949425
0.941311
0.877484
0.450241
0.925665
0.923576
0.923128
0.922988
0.922884
0.922892
0.922847
0.922868
0.922022
0.913469
0.847845
0.434788
0.855638
0.852548
0.851758
0.851405
0.851193
0.851113
0.851039
0.851089
0.850321
0.841194
0.77279
0.393216
0.68185
0.677907
0.67656
0.675809
0.675324
0.675081
0.674933
0.674978
0.674517
0.666433
0.603411
0.310758
0.285454
0.28391
0.282894
0.281723
0.280575
0.279762
0.279181
0.278507
0.277899
0.275037
0.25177
0.158007
0.577564
0.900003
0.95374
0.963219
0.964829
0.965087
0.965137
0.965186
0.965216
0.965261
0.965326
0.965561
0.459552
0.880839
0.950624
0.962306
0.964226
0.964518
0.964565
0.964598
0.96461
0.96462
0.964648
0.964817
0.442528
0.875165
0.949436
0.961736
0.963718
0.96401
0.964056
0.964078
0.964077
0.964082
0.964073
0.964213
0.442811
0.875692
0.949376
0.961377
0.963266
0.963536
0.963579
0.963593
0.963592
0.96358
0.963574
0.9637
0.446629
0.878469
0.94976
0.961077
0.962807
0.963044
0.963087
0.963092
0.963093
0.963077
0.963056
0.963172
0.450672
0.881335
0.949823
0.960397
0.961958
0.962169
0.962203
0.962213
0.962213
0.962198
0.962174
0.962284
0.454864
0.881817
0.947842
0.957839
0.959281
0.959472
0.95951
0.95952
0.959527
0.959507
0.959474
0.959582
0.453547
0.874037
0.938974
0.948815
0.950221
0.95042
0.95047
0.950499
0.950498
0.950483
0.950442
0.950565
0.438536
0.845125
0.91131
0.921537
0.923063
0.92325
0.92342
0.923407
0.923498
0.923384
0.92336
0.923505
0.396317
0.770842
0.839231
0.850097
0.851713
0.852042
0.852265
0.852445
0.852454
0.852351
0.85232
0.852418
0.31271
0.602502
0.664927
0.674797
0.676369
0.676838
0.677275
0.677728
0.677693
0.677481
0.677783
0.677617
0.158148
0.251836
0.27469
0.277923
0.278408
0.279083
0.27986
0.280804
0.281117
0.28196
0.282437
0.282361
)
;

boundaryField
{
    rotor
    {
        type            kqRWallFunction;
        value           nonuniform List<scalar> 
48
(
0.280115
0.437166
0.502056
0.546685
0.555395
0.566021
0.549466
0.555188
0.570159
0.582908
0.566057
0.560363
0.564605
0.574722
0.562076
0.557823
0.561613
0.570261
0.555354
0.542802
0.51714
0.46998
0.387436
0.262737
0.280115
0.385998
0.396693
0.409026
0.414143
0.421598
0.426331
0.429708
0.453294
0.448572
0.455204
0.59177
0.262737
0.352784
0.392529
0.404161
0.411634
0.413783
0.419065
0.432521
0.460339
0.492892
0.542067
0.644794
)
;
    }
    stator
    {
        type            kqRWallFunction;
        value           nonuniform List<scalar> 
48
(
0.285454
0.28391
0.282894
0.281723
0.280575
0.279762
0.279181
0.278507
0.277899
0.275037
0.25177
0.158007
0.158148
0.251836
0.27469
0.277923
0.278408
0.279083
0.27986
0.280804
0.281117
0.28196
0.282437
0.282361
0.577564
0.459552
0.442528
0.442811
0.446629
0.450672
0.454864
0.453547
0.438536
0.396317
0.31271
0.158148
0.58634
0.456631
0.437208
0.439004
0.443039
0.448234
0.451761
0.450241
0.434788
0.393216
0.310758
0.158007
)
;
    }
    front
    {
        type            empty;
    }
    back
    {
        type            empty;
    }
    procBoundary2to0
    {
        type            processor;
        value           nonuniform List<scalar> 
20
(
0.924325
1.02486
1.00405
0.985898
0.976002
0.970903
0.968202
0.966648
0.965619
0.964877
0.964268
0.963758
0.963224
0.962342
0.959632
0.950623
0.923598
0.852702
0.678118
0.283423
)
;
    }
    procBoundary2to3
    {
        type            processor;
        value           nonuniform List<scalar> 
20
(
0.937028
1.01111
1.00203
0.986276
0.976634
0.971546
0.968825
0.967246
0.966213
0.965452
0.964841
0.964315
0.963796
0.962953
0.960421
0.951818
0.925563
0.855425
0.681361
0.284713
)
;
    }
}


// ************************************************************************* //
