/*--------------------------------*- C++ -*----------------------------------*\
  =========                 |
  \\      /  F ield         | OpenFOAM: The Open Source CFD Toolbox
   \\    /   O peration     | Website:  https://openfoam.org
    \\  /    A nd           | Version:  6
     \\/     M anipulation  |
\*---------------------------------------------------------------------------*/
FoamFile
{
    version     2.0;
    format      ascii;
    class       volScalarField;
    location    "2000";
    object      nut;
}
// * * * * * * * * * * * * * * * * * * * * * * * * * * * * * * * * * * * * * //

dimensions      [0 2 -1 0 0 0 0];

internalField   nonuniform List<scalar> 
768
(
4.65713e-05
0.000128876
0.000151409
0.000164898
0.000170538
0.000172888
0.000170805
0.000170703
0.000173457
0.000176308
0.000175725
0.000173737
7.86691e-05
0.00054124
0.000885143
0.00109595
0.00122227
0.00129123
0.00133514
0.00135526
0.00136252
0.00136934
0.00137889
0.00138221
9.07529e-05
0.000726032
0.00149639
0.00217482
0.00262856
0.00286333
0.00296805
0.0030087
0.00302227
0.00302665
0.00302949
0.0030296
0.000105304
0.000832107
0.00181358
0.00279815
0.00349339
0.00384752
0.00399135
0.00404284
0.00405927
0.00406301
0.00406316
0.00406248
0.000114332
0.000888656
0.00197574
0.00307906
0.00384298
0.00421456
0.00435661
0.00440377
0.00441774
0.00442112
0.00442162
0.00442164
0.000126802
0.000956915
0.0020987
0.00323662
0.00399151
0.0043388
0.00446451
0.0045034
0.004514
0.00451658
0.00451778
0.0045183
0.000135666
0.00102211
0.00220626
0.00335309
0.004077
0.00439216
0.00450046
0.0045323
0.00454012
0.00454198
0.00454318
0.00454357
0.00014824
0.00108035
0.00230147
0.00344849
0.00413917
0.00442461
0.00451835
0.00454309
0.00454783
0.00455088
0.00455309
0.00455283
0.000164155
0.00111266
0.00237502
0.00352448
0.00418748
0.00444864
0.00453052
0.00455016
0.00455263
0.00455447
0.00455601
0.00455709
0.000173152
0.00110619
0.00242332
0.0035853
0.00422709
0.00446738
0.00453939
0.00455511
0.00455569
0.00455689
0.00455915
0.0045601
0.00017828
0.00106096
0.00246094
0.00364994
0.00426759
0.00448536
0.00454736
0.00455957
0.00455935
0.00455896
0.00455771
0.0045582
0.000209686
0.00110243
0.00261359
0.003783
0.00432781
0.00450656
0.00455411
0.00456066
0.00456019
0.00456054
0.00456089
0.00456169
0.000172358
0.000175542
0.000175744
0.000173496
0.000172879
0.000172407
0.000169
0.000164942
0.000156968
0.000142639
0.00011661
4.38119e-05
0.00137908
0.00137877
0.00138674
0.001388
0.00138307
0.0013783
0.00137191
0.00132191
0.00116324
0.000862326
0.000404965
7.11227e-05
0.00302718
0.00302561
0.0030281
0.00302842
0.00302469
0.00301516
0.00297225
0.00279286
0.00231795
0.00156356
0.000705041
9.11354e-05
0.00406111
0.00406032
0.00406036
0.00405971
0.00405734
0.00404647
0.00398666
0.00373542
0.00305921
0.00199924
0.000888673
0.000104198
0.00442148
0.0044212
0.00442062
0.00441977
0.00441841
0.00441001
0.00435701
0.00411703
0.00341445
0.00223636
0.000982798
0.000114925
0.00451792
0.00451756
0.00451785
0.00451808
0.00451732
0.00451081
0.00446898
0.00426497
0.00360809
0.00240714
0.00106561
0.000124805
0.00454359
0.00454275
0.00454226
0.00454277
0.00454315
0.00453867
0.00450629
0.00433908
0.00374894
0.00256284
0.00115402
0.000132009
0.00455252
0.00455064
0.00455005
0.00455035
0.0045507
0.00454783
0.00452358
0.00438893
0.00386722
0.00271699
0.00126357
0.000143253
0.00455741
0.00455437
0.00455302
0.00455321
0.00455375
0.0045526
0.00453495
0.00442752
0.00397471
0.00287225
0.00136817
0.000159695
0.00455966
0.00455884
0.00455757
0.00455559
0.00455555
0.00455578
0.00454373
0.00446003
0.00407423
0.00303637
0.00150102
0.000183461
0.00455881
0.00455841
0.00456011
0.00456034
0.00456053
0.00456067
0.00455126
0.00448767
0.00417019
0.00321919
0.0016629
0.000212657
0.00456166
0.004562
0.00456284
0.00456254
0.00456243
0.00456293
0.00455674
0.00451291
0.0042733
0.00345613
0.00191548
0.000260376
0.00118864
0.00214481
0.00325895
0.00405866
0.00441527
0.0045307
0.00456093
0.00456416
0.00456449
0.00456294
0.00456213
0.00456524
0.00250284
0.00317649
0.00386797
0.00430378
0.0044906
0.00455158
0.00456618
0.00456586
0.00456515
0.00456564
0.00456663
0.00456483
0.00359662
0.00392346
0.00425816
0.00445377
0.00453675
0.00456468
0.00456938
0.00456728
0.00456495
0.00456468
0.00456395
0.0045573
0.00420514
0.00432258
0.0044525
0.00452774
0.00456012
0.00457035
0.00456985
0.00456939
0.00456888
0.00456816
0.00455513
0.0045208
0.0045627
0.00456256
0.00456424
0.00456398
0.00456377
0.00456355
0.00456018
0.00453633
0.00439536
0.0038421
0.00260508
0.00100822
0.00456206
0.00456642
0.00456951
0.00456851
0.00456663
0.00456487
0.00456323
0.00455238
0.00448653
0.00420265
0.00344785
0.0023084
0.0045557
0.00456527
0.00456757
0.00456695
0.00456848
0.00456838
0.00456793
0.00456284
0.00453582
0.00441869
0.00407117
0.00346848
0.00451616
0.00454997
0.00456444
0.00456681
0.00457002
0.00457209
0.00457158
0.00456966
0.00455925
0.00451729
0.00438824
0.00415358
0.00445155
0.00449274
0.0045357
0.00456048
0.00457114
0.00457421
0.00457423
0.00457399
0.00457229
0.00456037
0.00449542
0.00434697
0.00453806
0.00455139
0.00456471
0.00457236
0.00457585
0.00457673
0.0045768
0.00457633
0.00457007
0.00452114
0.00428607
0.00382892
0.00456608
0.00457075
0.00457482
0.00457707
0.00457833
0.00457858
0.00457856
0.00457705
0.00455836
0.00441543
0.00381084
0.00286206
0.00457522
0.00457745
0.00457884
0.00457948
0.00457997
0.00458002
0.00457987
0.00457632
0.004535
0.00423576
0.00313033
0.00156138
0.0043304
0.00447425
0.00454859
0.00456888
0.00457356
0.00457445
0.00457442
0.00457423
0.0045708
0.00455566
0.00451001
0.00443459
0.00379303
0.00424886
0.00449331
0.00456065
0.00457429
0.00457649
0.00457688
0.00457708
0.00457612
0.00457118
0.00455656
0.00453443
0.00281375
0.00378833
0.00437579
0.00454094
0.00457309
0.00457813
0.00457879
0.00457899
0.00457878
0.00457728
0.00457289
0.00456652
0.00148943
0.00312429
0.00420176
0.00451205
0.00457032
0.0045792
0.00458032
0.00458056
0.00458049
0.00458003
0.00457873
0.00457672
0.00457871
0.00458033
0.00458097
0.00458106
0.00458128
0.00458134
0.00458108
0.00457521
0.00451001
0.00405983
0.0024332
0.000340712
0.00458053
0.00458202
0.00458243
0.00458233
0.00458248
0.00458259
0.00458227
0.00457538
0.00450036
0.00399854
0.00229748
0.000278519
0.00458188
0.00458331
0.00458362
0.0045835
0.0045836
0.00458372
0.0045834
0.00457668
0.00450285
0.00400379
0.00230127
0.000272523
0.00458275
0.00458404
0.00458426
0.00458421
0.00458419
0.00458425
0.00458402
0.0045781
0.00451065
0.00403746
0.00235532
0.000280374
0.00458047
0.00458125
0.00458135
0.00458126
0.00458117
0.00458127
0.00458111
0.0045761
0.00451638
0.00407683
0.00242477
0.000291358
0.00455626
0.00455426
0.0045538
0.00455358
0.00455345
0.00455352
0.00455342
0.0045493
0.00449738
0.00409451
0.00248774
0.000302549
0.00443596
0.00442706
0.00442497
0.00442435
0.00442408
0.00442412
0.0044242
0.00442108
0.0043773
0.00401961
0.0025088
0.000312397
0.00404746
0.00402876
0.00402412
0.00402274
0.00402216
0.00402209
0.00402256
0.00402078
0.00398744
0.00370072
0.00241037
0.000316409
0.00323456
0.00321443
0.00320864
0.00320685
0.00320617
0.00320602
0.00320705
0.00320685
0.00318713
0.0030027
0.00209449
0.000308588
0.00217785
0.00217048
0.00216677
0.00216655
0.00216548
0.0021655
0.00216698
0.00216764
0.00215991
0.00207283
0.00157818
0.000283392
0.0010324
0.00102427
0.00102092
0.00102189
0.00102121
0.0010209
0.00102289
0.00102376
0.001023
0.000997187
0.00082118
0.000232622
0.000105715
0.00010509
0.000104757
0.000104611
0.00010444
0.000104133
0.000103958
0.000103823
0.00010366
0.000102077
9.05061e-05
5.03105e-05
0.000335786
0.00246983
0.00403239
0.00448501
0.00456787
0.00458008
0.00458161
0.00458195
0.00458185
0.00458172
0.00458125
0.00458038
0.000279809
0.00231796
0.00396733
0.00447399
0.0045675
0.0045811
0.00458279
0.00458306
0.00458294
0.00458302
0.00458287
0.00458222
0.000276445
0.00231063
0.00396779
0.00447626
0.00456901
0.00458228
0.00458393
0.00458404
0.00458395
0.00458399
0.00458395
0.00458349
0.000284
0.00235489
0.00399802
0.00448504
0.00457118
0.00458316
0.00458466
0.00458465
0.00458457
0.00458459
0.00458457
0.00458421
0.000294088
0.00241613
0.00403578
0.00449262
0.00457002
0.00458038
0.00458165
0.00458161
0.00458157
0.00458166
0.00458154
0.00458121
0.000304517
0.00247433
0.00405426
0.00447615
0.00454446
0.00455329
0.00455438
0.00455438
0.00455446
0.00455452
0.00455428
0.00455409
0.000314307
0.00249441
0.00398392
0.00436007
0.00441878
0.00442631
0.00442742
0.0044276
0.00442775
0.00442766
0.00442721
0.00442767
0.00031834
0.00239918
0.0036745
0.00397691
0.00402312
0.00402948
0.00403082
0.00403142
0.00403142
0.00403119
0.00403044
0.00403134
0.000311016
0.00208604
0.00298725
0.00318428
0.00321434
0.0032192
0.00322071
0.00322167
0.00322141
0.00322106
0.00321987
0.00322023
0.000285644
0.00156666
0.00206374
0.00216151
0.00217669
0.0021797
0.00218047
0.00218138
0.00217996
0.00218107
0.00217946
0.00217691
0.000234243
0.000818491
0.000993769
0.00102556
0.00103082
0.00103196
0.00103163
0.00103236
0.0010309
0.00103158
0.00103155
0.00102747
5.00002e-05
9.02258e-05
0.000101684
0.000103518
0.000103733
0.000103951
0.000104053
0.00010444
0.000104506
0.000104874
0.000105081
0.000104902
)
;

boundaryField
{
    rotor
    {
        type            nutkWallFunction;
        Cmu             0.09;
        kappa           0.41;
        E               9.8;
        value           nonuniform List<scalar> 
48
(
5.64138e-06
2.09359e-05
2.27814e-05
2.39734e-05
2.41995e-05
2.44728e-05
2.40458e-05
2.41942e-05
2.45784e-05
2.4901e-05
2.44737e-05
2.43277e-05
2.44365e-05
2.46943e-05
2.43717e-05
2.42622e-05
2.43598e-05
2.45809e-05
2.41985e-05
2.38719e-05
2.31907e-05
2.18871e-05
1.94137e-05
5.24076e-06
5.64138e-06
9.51501e-06
1.14245e-05
1.33862e-05
1.51856e-05
1.70465e-05
1.88379e-05
2.0589e-05
2.29609e-05
2.44763e-05
2.63477e-05
3.24449e-05
5.24076e-06
8.80877e-06
1.13316e-05
1.32708e-05
1.51222e-05
1.68369e-05
1.86319e-05
2.06725e-05
2.31747e-05
2.58687e-05
2.91226e-05
3.40147e-05
)
;
    }
    stator
    {
        type            nutkWallFunction;
        Cmu             0.09;
        kappa           0.41;
        E               9.8;
        value           nonuniform List<scalar> 
48
(
1.53975e-05
1.53404e-05
1.53027e-05
1.52592e-05
1.52164e-05
1.51861e-05
1.51644e-05
1.51392e-05
1.51164e-05
1.50088e-05
1.41095e-05
9.89674e-06
9.90403e-06
1.41121e-05
1.49957e-05
1.51173e-05
1.51355e-05
1.51607e-05
1.51897e-05
1.5225e-05
1.52366e-05
1.5268e-05
1.52857e-05
1.52829e-05
4.79969e-05
4.41789e-05
4.48508e-05
4.63965e-05
4.81341e-05
4.98893e-05
5.16585e-05
5.31066e-05
5.37009e-05
5.24273e-05
4.76973e-05
9.90403e-06
4.83716e-05
4.40318e-05
4.45687e-05
4.61891e-05
4.7934e-05
4.97506e-05
5.14782e-05
5.29092e-05
5.34672e-05
5.22178e-05
4.75432e-05
9.89674e-06
)
;
    }
    front
    {
        type            empty;
    }
    back
    {
        type            empty;
    }
    procBoundary2to0
    {
        type            processor;
        value           nonuniform List<scalar> 
20
(
0.00100096
0.00230331
0.00346802
0.00415458
0.00443541
0.00453487
0.00456673
0.00457685
0.00458051
0.00458232
0.00458361
0.00458433
0.00458131
0.00455414
0.00442775
0.00403152
0.00322051
0.00217727
0.00102746
0.000105378
)
;
    }
    procBoundary2to3
    {
        type            processor;
        value           nonuniform List<scalar> 
20
(
0.00117914
0.0025007
0.00359524
0.00420412
0.00445101
0.0045379
0.00456609
0.00457525
0.00457871
0.00458053
0.00458183
0.00458269
0.00458042
0.00455621
0.00443581
0.00404721
0.00323432
0.00217797
0.00103241
0.000105444
)
;
    }
}


// ************************************************************************* //
