/*--------------------------------*- C++ -*----------------------------------*\
  =========                 |
  \\      /  F ield         | OpenFOAM: The Open Source CFD Toolbox
   \\    /   O peration     | Website:  https://openfoam.org
    \\  /    A nd           | Version:  6
     \\/     M anipulation  |
\*---------------------------------------------------------------------------*/
FoamFile
{
    version     2.0;
    format      ascii;
    class       volVectorField;
    location    "2000";
    object      U;
}
// * * * * * * * * * * * * * * * * * * * * * * * * * * * * * * * * * * * * * //

dimensions      [0 1 -1 0 0 0 0];

internalField   nonuniform List<vector> 
768
(
(-0.278392 -1.31257 2.59163e-19)
(-0.282063 -1.34008 -3.61176e-19)
(-0.332024 -1.25839 3.56601e-19)
(-0.405542 -1.20077 -1.14939e-19)
(-0.461489 -1.13705 0)
(-0.515172 -1.10171 4.82562e-20)
(-0.565303 -1.0522 0)
(-0.622687 -1.01127 6.5281e-20)
(-0.680138 -0.961295 -2.10391e-19)
(-0.7428 -0.913938 2.22766e-19)
(-0.797137 -0.855302 7.40464e-19)
(-0.853385 -0.800913 -1.5671e-19)
(-0.404845 -1.03234 4.43694e-20)
(-0.28741 -0.893722 -1.74814e-19)
(-0.219 -0.760607 1.00612e-19)
(-0.205341 -0.66048 2.61385e-20)
(-0.211127 -0.599505 -1.74241e-20)
(-0.222488 -0.556344 1.02828e-20)
(-0.238544 -0.521619 -5.49334e-21)
(-0.258432 -0.492194 -9.98056e-20)
(-0.281973 -0.464949 1.54152e-19)
(-0.307079 -0.438772 -5.35239e-20)
(-0.333293 -0.411656 1.18456e-20)
(-0.359383 -0.38427 2.80563e-20)
(-0.458858 -0.865551 -1.23599e-19)
(-0.220321 -0.681745 0)
(-0.13359 -0.515173 0)
(-0.112516 -0.423569 1.30144e-20)
(-0.113134 -0.376753 0)
(-0.120612 -0.346023 2.43238e-20)
(-0.131439 -0.321787 2.64447e-21)
(-0.144425 -0.300949 1.80873e-20)
(-0.159247 -0.281771 1.13907e-20)
(-0.175126 -0.263429 -4.46489e-20)
(-0.191786 -0.24523 -1.23419e-19)
(-0.20864 -0.227137 1.32423e-19)
(-0.363057 -0.861742 -3.48502e-20)
(-0.132661 -0.636359 -2.16644e-20)
(-0.0713016 -0.458408 -7.68981e-21)
(-0.0621706 -0.367774 -1.05144e-20)
(-0.0686763 -0.324343 0)
(-0.0796581 -0.296195 5.92451e-20)
(-0.0922776 -0.273597 -4.5297e-20)
(-0.105829 -0.253696 0)
(-0.120194 -0.235284 2.71419e-20)
(-0.135104 -0.217762 -4.20951e-20)
(-0.150418 -0.200717 6.85534e-20)
(-0.165882 -0.183973 1.3385e-20)
(-0.274448 -0.922758 4.66111e-20)
(-0.0386777 -0.662051 1.57008e-20)
(-0.0145935 -0.455668 -2.18267e-20)
(-0.0229481 -0.361882 0)
(-0.0376574 -0.317286 4.37844e-20)
(-0.0532709 -0.288048 -7.17751e-20)
(-0.0691389 -0.264235 0)
(-0.085038 -0.243124 9.79611e-21)
(-0.101218 -0.223552 -1.51113e-20)
(-0.117414 -0.205095 1.97135e-20)
(-0.13375 -0.18725 0)
(-0.149973 -0.169921 -7.77932e-20)
(-0.133286 -0.994278 -1.58618e-21)
(0.0621897 -0.690012 -3.06081e-20)
(0.0439843 -0.464829 2.76789e-20)
(0.0157115 -0.366666 1.52007e-19)
(-0.00820929 -0.319463 -8.14551e-21)
(-0.0292029 -0.2879 -8.87484e-20)
(-0.0487208 -0.262195 0)
(-0.0676454 -0.239433 -2.88959e-20)
(-0.0861322 -0.218572 -2.12308e-20)
(-0.104328 -0.19894 2.12258e-20)
(-0.122153 -0.180192 -9.52026e-21)
(-0.139729 -0.161917 -2.4796e-20)
(0.0148819 -1.05481 1.09924e-19)
(0.179805 -0.71698 5.48703e-21)
(0.108883 -0.473114 0)
(0.0576593 -0.370334 -1.58512e-19)
(0.0231823 -0.319859 1.83912e-19)
(-0.00388356 -0.285784 6.46524e-21)
(-0.0276478 -0.258291 1.13179e-19)
(-0.0499168 -0.234274 1.63823e-20)
(-0.0710314 -0.212516 2.79492e-21)
(-0.09134 -0.192169 -4.39787e-20)
(-0.110783 -0.172824 8.6996e-20)
(-0.129662 -0.153879 -7.99545e-20)
(0.176074 -1.11125 1.34739e-19)
(0.309005 -0.73834 7.48312e-20)
(0.180189 -0.476431 0)
(0.103298 -0.368502 -9.43807e-20)
(0.0565917 -0.314614 -5.37642e-20)
(0.0226495 -0.278431 -3.28913e-20)
(-0.00602207 -0.249809 -1.97116e-20)
(-0.0317779 -0.22538 -3.16416e-20)
(-0.0556911 -0.203428 -5.4472e-20)
(-0.0779314 -0.183123 -3.62297e-20)
(-0.0989428 -0.163659 -9.54389e-21)
(-0.118782 -0.144596 0)
(0.399368 -1.12724 -4.35516e-19)
(0.452013 -0.74636 0)
(0.258533 -0.47107 0)
(0.151918 -0.35821 9.2018e-20)
(0.0910483 -0.30164 -6.06922e-20)
(0.0490066 -0.264515 6.11527e-20)
(0.0151112 -0.236104 0)
(-0.0143206 -0.212361 1.60266e-20)
(-0.0407378 -0.191279 9.24365e-21)
(-0.0647705 -0.171728 5.26862e-20)
(-0.0869095 -0.152891 -8.76422e-20)
(-0.10745 -0.134145 2.23404e-19)
(0.606385 -1.06128 -1.27893e-18)
(0.610036 -0.719068 1.23811e-19)
(0.341975 -0.445757 1.56893e-19)
(0.20141 -0.334151 1.59595e-19)
(0.124386 -0.278604 0)
(0.0734759 -0.243338 -6.05664e-20)
(0.0342412 -0.217198 4.42421e-21)
(0.00143661 -0.19566 5.92451e-21)
(-0.0271062 -0.176509 7.02564e-20)
(-0.0524796 -0.158534 0)
(-0.0753439 -0.140943 -1.05546e-19)
(-0.096142 -0.123039 -2.21908e-19)
(0.852632 -0.768011 1.16173e-18)
(0.751428 -0.583355 -1.37335e-19)
(0.414368 -0.380117 -1.51039e-19)
(0.244228 -0.288741 -9.98751e-20)
(0.152514 -0.243239 -2.34825e-20)
(0.093582 -0.214803 8.22058e-22)
(0.0498559 -0.193776 -1.60506e-20)
(0.0144827 -0.176099 1.49769e-19)
(-0.0154914 -0.159901 -1.43079e-19)
(-0.0416243 -0.144202 -1.68192e-19)
(-0.0647322 -0.128378 1.90858e-19)
(-0.0853557 -0.111752 0)
(0.895997 0.0192754 -6.21486e-19)
(0.730964 -0.245798 3.00749e-21)
(0.432168 -0.248231 -6.29165e-20)
(0.265416 -0.215915 -4.64809e-20)
(0.169115 -0.195409 0)
(0.106439 -0.180261 -1.3276e-20)
(0.0605396 -0.167258 -7.44154e-20)
(0.0240865 -0.154847 -2.14799e-20)
(-0.00635467 -0.142344 -5.91847e-20)
(-0.0325429 -0.129408 1.66284e-19)
(-0.055412 -0.115691 1.06425e-19)
(-0.0754405 -0.100708 3.7784e-19)
(-0.904502 -0.739127 -1.51388e-19)
(-0.958432 -0.679662 2.44464e-19)
(-1.00228 -0.614154 -5.84573e-19)
(-1.045 -0.549917 1.81274e-18)
(-1.08175 -0.484019 -8.43602e-19)
(-1.11783 -0.421533 0)
(-1.14642 -0.359003 -3.9242e-19)
(-1.17472 -0.297408 3.19354e-19)
(-1.18363 -0.223168 0)
(-1.29677 -0.188967 2.23144e-20)
(-1.30934 -0.21092 0)
(-1.10331 -0.254085 2.4902e-20)
(-0.385593 -0.356294 -4.36007e-19)
(-0.41099 -0.328309 2.61863e-19)
(-0.435609 -0.299758 2.75197e-19)
(-0.45928 -0.271907 -1.15465e-19)
(-0.482581 -0.244647 0)
(-0.506144 -0.219852 0)
(-0.531407 -0.198622 1.45012e-19)
(-0.56244 -0.183884 -1.49935e-19)
(-0.609897 -0.179477 0)
(-0.699166 -0.20914 -1.73458e-22)
(-0.841199 -0.308224 -3.52187e-20)
(-0.941135 -0.423672 4.61159e-20)
(-0.22562 -0.208985 6.15371e-20)
(-0.24238 -0.190982 -1.36787e-19)
(-0.259059 -0.173166 0)
(-0.275633 -0.155951 -1.70156e-19)
(-0.292555 -0.139551 -1.91562e-19)
(-0.310306 -0.124565 3.92774e-19)
(-0.330164 -0.111603 -3.19205e-19)
(-0.35469 -0.102133 0)
(-0.392726 -0.100086 0)
(-0.473188 -0.118253 0)
(-0.629429 -0.186707 -3.31122e-21)
(-0.822277 -0.328742 2.75394e-20)
(-0.181439 -0.167409 -4.8591e-20)
(-0.196994 -0.151041 -5.76626e-21)
(-0.212634 -0.134902 0)
(-0.2285 -0.119157 -1.00908e-20)
(-0.244961 -0.103934 0)
(-0.262454 -0.0894579 0)
(-0.281899 -0.0759723 9.16213e-20)
(-0.305385 -0.0642095 -1.06114e-19)
(-0.340677 -0.0567404 1.27e-19)
(-0.417072 -0.061857 0)
(-0.581531 -0.101169 -6.85894e-20)
(-0.801609 -0.218949 -2.73499e-19)
(-0.166261 -0.152768 2.21149e-19)
(-0.182491 -0.135825 -5.42162e-20)
(-0.198951 -0.118889 1.56984e-19)
(-0.215752 -0.102107 9.93524e-20)
(-0.233382 -0.0854139 -2.74568e-19)
(-0.252248 -0.0690011 0)
(-0.273293 -0.0528836 -1.1802e-19)
(-0.298501 -0.0372574 0)
(-0.335347 -0.0225973 0)
(-0.414259 -0.0113928 1.03435e-19)
(-0.594332 -0.0126845 -2.41142e-20)
(-0.867183 -0.0849036 3.37032e-19)
(-0.157067 -0.143886 -1.30529e-19)
(-0.174381 -0.125804 -1.61671e-20)
(-0.191794 -0.107536 0)
(-0.209727 -0.0889561 0)
(-0.228556 -0.070069 -3.25372e-19)
(-0.248975 -0.0508351 2.13588e-19)
(-0.271889 -0.0312869 2.45298e-19)
(-0.299345 -0.0107668 1.40077e-19)
(-0.338246 0.0124226 -3.36011e-19)
(-0.419033 0.0419123 -9.76937e-20)
(-0.612299 0.0815964 0)
(-0.919373 0.0644233 6.81618e-19)
(-0.147997 -0.135082 -2.52588e-19)
(-0.166136 -0.115902 1.22698e-19)
(-0.184265 -0.0962094 1.79741e-19)
(-0.202849 -0.0756838 1.60867e-20)
(-0.222434 -0.0542851 -1.09321e-20)
(-0.24379 -0.0318886 -2.45203e-19)
(-0.268002 -0.00824868 -4.00043e-19)
(-0.296999 0.0178078 -1.53107e-19)
(-0.337542 0.0496625 1.69327e-19)
(-0.419392 0.0970292 0)
(-0.618672 0.17655 3.89275e-19)
(-0.918373 0.214886 -4.45744e-19)
(-0.137874 -0.125276 2.59962e-19)
(-0.156358 -0.105353 -1.45076e-19)
(-0.174719 -0.0843359 -1.78126e-19)
(-0.193301 -0.0620329 -4.08204e-19)
(-0.212877 -0.0381349 4.32773e-19)
(-0.234233 -0.0124908 -1.82502e-20)
(-0.258676 0.0154705 8.16496e-19)
(-0.288527 0.0471692 1.5194e-19)
(-0.329736 0.0880298 1.90504e-19)
(-0.409974 0.152973 0)
(-0.612428 0.271086 -2.39015e-19)
(-0.900852 0.348877 -7.31311e-19)
(-0.126762 -0.114833 0)
(-0.145181 -0.0944557 1.53139e-19)
(-0.163102 -0.0725494 1.77551e-19)
(-0.181047 -0.0487427 -2.17012e-19)
(-0.199677 -0.0227543 -1.34652e-20)
(-0.220013 0.00593264 -2.55577e-19)
(-0.243388 0.0379847 -2.79379e-19)
(-0.27213 0.0756541 0)
(-0.312355 0.125567 -1.85581e-19)
(-0.389062 0.208 -1.28601e-19)
(-0.58331 0.362316 6.86711e-19)
(-0.845714 0.515161 -7.16998e-19)
(-0.115246 -0.104161 0)
(-0.133065 -0.0837719 0)
(-0.15002 -0.0613743 0)
(-0.166609 -0.0366305 -6.32971e-19)
(-0.1835 -0.00905109 4.34885e-19)
(-0.201591 0.02199 4.96169e-19)
(-0.22226 0.0577497 0)
(-0.247956 0.101017 -3.14307e-19)
(-0.283858 0.159917 0)
(-0.350525 0.259351 -2.62433e-19)
(-0.526683 0.452067 -1.09087e-19)
(-0.766223 0.686125 -7.05709e-19)
(-0.103826 -0.0937285 0)
(-0.120608 -0.0737068 0)
(-0.136135 -0.0513039 3.7183e-19)
(-0.150828 -0.0261971 6.27452e-19)
(-0.165258 0.00218345 9.09909e-21)
(-0.180074 0.0346659 2.48876e-19)
(-0.196326 0.0730389 -1.45359e-19)
(-0.215806 0.120799 4.57021e-19)
(-0.242862 0.18713 3.57508e-19)
(-0.291417 0.299111 2.46419e-19)
(-0.409638 0.519369 -2.48042e-19)
(-0.64454 0.841698 -5.54727e-19)
(-0.0928915 -0.0838916 0)
(-0.108289 -0.0646005 0)
(-0.122064 -0.0426549 -3.67488e-19)
(-0.134552 -0.0177838 1.93584e-19)
(-0.146053 0.0105054 -2.3491e-19)
(-0.156837 0.0432581 -2.46009e-19)
(-0.167223 0.0824524 2.63177e-19)
(-0.177861 0.132043 0)
(-0.190128 0.201209 -3.46282e-19)
(-0.209253 0.315569 -2.17728e-19)
(-0.259915 0.548478 3.10763e-19)
(-0.302618 1.1878 -5.27602e-19)
(0.266039 0.535242 1.5621e-19)
(0.512837 0.106084 1.00241e-19)
(0.379264 -0.083572 0)
(0.254339 -0.129811 5.643e-20)
(0.169354 -0.142461 9.43637e-21)
(0.110116 -0.143779 -5.42875e-20)
(0.0655882 -0.140007 -2.07351e-20)
(0.0299598 -0.133357 1.28999e-19)
(0.0001749 -0.124796 -7.30291e-20)
(-0.0253788 -0.114785 0)
(-0.0475607 -0.103355 -4.57379e-19)
(-0.066682 -0.0902628 1.22219e-20)
(0.174592 0.441148 2.90445e-20)
(0.345542 0.183738 5.13406e-20)
(0.295141 0.00770207 5.43784e-20)
(0.219181 -0.0660175 -6.41259e-20)
(0.155561 -0.0976671 5.54231e-20)
(0.105601 -0.110824 -4.4873e-20)
(0.0655673 -0.114586 0)
(0.0324447 -0.112991 2.54734e-19)
(0.00428684 -0.108059 -8.51938e-20)
(-0.0200728 -0.100823 0)
(-0.0412138 -0.0916981 2.33035e-19)
(-0.0592707 -0.0806701 -2.65249e-19)
(0.092443 0.312533 -1.54805e-20)
(0.225642 0.170874 2.78615e-20)
(0.220543 0.0439332 -4.93499e-20)
(0.179637 -0.0269981 4.99229e-20)
(0.135705 -0.0645504 -5.41556e-20)
(0.0962102 -0.0838067 2.0799e-19)
(0.0619777 -0.0924674 2.49112e-19)
(0.0323049 -0.0946349 -7.17737e-20)
(0.00637699 -0.0926583 1.14583e-19)
(-0.0164255 -0.0878659 0)
(-0.0363839 -0.0809144 -2.55725e-19)
(-0.0534731 -0.0720984 0)
(0.0542504 0.22323 -8.81314e-20)
(0.150935 0.141729 -1.11865e-19)
(0.16395 0.0539176 1.04932e-19)
(0.144122 -0.00550743 -4.29376e-20)
(0.114913 -0.0418932 8.54906e-20)
(0.0847067 -0.0630316 -2.88846e-19)
(0.056271 -0.074191 -1.7628e-19)
(0.0303247 -0.0787453 1.98178e-19)
(0.00686472 -0.0789142 -3.09218e-19)
(-0.0142331 -0.0760933 0)
(-0.0331007 -0.0711047 2.51783e-19)
(-0.0498019 -0.064934 -5.72724e-19)
(-0.0827378 -0.0749685 4.61362e-19)
(-0.0964824 -0.0566786 -1.5802e-19)
(-0.108339 -0.0355441 0)
(-0.118515 -0.0114792 -4.01954e-19)
(-0.126995 0.015891 0)
(-0.133591 0.0475727 0)
(-0.137649 0.0853164 -2.59667e-19)
(-0.137768 0.132638 0)
(-0.131127 0.19665 0)
(-0.109181 0.293922 1.2432e-20)
(-0.0503915 0.463821 2.70178e-19)
(0.310745 0.82114 2.27082e-19)
(-0.0735519 -0.0672278 -2.989e-19)
(-0.0854077 -0.0500387 0)
(-0.0953173 -0.029941 0)
(-0.103265 -0.00712326 -2.04413e-19)
(-0.10899 0.0186855 2.04465e-19)
(-0.111887 0.0481626 0)
(-0.110682 0.0825445 -3.56157e-19)
(-0.10285 0.123868 -1.26988e-19)
(-0.0833784 0.175502 0)
(-0.0414351 0.243 -6.66384e-20)
(0.0505932 0.326129 -2.50356e-19)
(0.352594 0.331947 -6.70217e-20)
(-0.0654257 -0.0609954 3.11671e-19)
(-0.0751444 -0.0447146 -1.73068e-19)
(-0.083155 -0.0257168 -3.7247e-19)
(-0.0891129 -0.00437048 1.86036e-19)
(-0.0925372 0.0194751 -4.09579e-19)
(-0.0925758 0.0461398 0)
(-0.0877109 0.0762427 9.38281e-19)
(-0.0751674 0.110411 0)
(-0.0501373 0.149084 1.37655e-19)
(-0.00355364 0.191028 8.10919e-20)
(0.0844108 0.225003 1.22117e-19)
(0.265281 0.187333 -1.20857e-21)
(-0.0585927 -0.0568808 -3.08415e-19)
(-0.0656693 -0.0407189 0)
(-0.0718225 -0.0226364 3.53356e-19)
(-0.0760826 -0.00279076 -5.70878e-19)
(-0.0776911 0.0189429 9.9544e-19)
(-0.0756943 0.0426536 -4.21875e-19)
(-0.068574 0.0683968 -9.00902e-19)
(-0.0538721 0.0958735 0)
(-0.0277165 0.123803 0)
(0.0158943 0.148411 0)
(0.0872859 0.157967 -1.40663e-19)
(0.196389 0.11339 -1.10046e-19)
(0.0385068 0.162689 8.38766e-20)
(0.106059 0.111454 6.02843e-20)
(0.122958 0.0504169 -1.01726e-19)
(0.114207 0.00363752 0)
(0.0948905 -0.0280899 4.88487e-20)
(0.0720428 -0.0481886 1.57747e-19)
(0.0487804 -0.059814 0)
(0.0264298 -0.0654147 2.20633e-19)
(0.00544495 -0.0668416 0)
(-0.0140058 -0.0654253 6.28506e-19)
(-0.0322119 -0.0623235 -2.66499e-19)
(-0.0499157 -0.0596311 7.23032e-19)
(0.0255933 0.122322 -1.92516e-20)
(0.0754389 0.0895706 9.02609e-20)
(0.0934345 0.0463465 -1.2617e-19)
(0.0913491 0.00948284 -1.79313e-19)
(0.0788555 -0.0177624 -1.33645e-21)
(0.0615761 -0.0362867 -2.56447e-19)
(0.042532 -0.0477691 -3.35545e-19)
(0.0232453 -0.0538789 -3.37579e-19)
(0.00437389 -0.0561055 -4.84139e-19)
(-0.0138812 -0.0557325 -4.9533e-19)
(-0.0326614 -0.0544376 0)
(-0.0550958 -0.0574416 0)
(0.017772 0.094697 8.27103e-20)
(0.0551902 0.0731472 -1.03384e-19)
(0.0720446 0.0419115 1.57484e-19)
(0.0734608 0.0128169 -1.70423e-20)
(0.0654885 -0.010268 2.37756e-19)
(0.052374 -0.026889 1.20152e-19)
(0.0367662 -0.0377417 3.34696e-19)
(0.0201314 -0.043858 8.24482e-19)
(0.00312884 -0.0463551 3.56497e-19)
(-0.0142729 -0.0463456 -5.32442e-19)
(-0.0353235 -0.0463163 0)
(-0.0690929 -0.0576467 0)
(0.0127972 0.0752771 -1.61885e-19)
(0.0413903 0.0605929 3.45932e-20)
(0.0563006 0.0375373 -3.45876e-20)
(0.059416 0.01447 3.03395e-19)
(0.0544139 -0.00492505 -2.94449e-19)
(0.0444158 -0.0195551 -1.05895e-19)
(0.0316069 -0.0294766 -7.77268e-22)
(0.0173119 -0.0352103 1.37174e-19)
(0.00213878 -0.0374461 -5.0088e-19)
(-0.0142438 -0.0368346 5.41777e-19)
(-0.0380795 -0.0354462 -7.38018e-19)
(-0.092054 -0.0524521 0)
(-0.0536421 -0.0558796 -6.72893e-19)
(-0.057157 -0.0377194 -1.72947e-19)
(-0.0614872 -0.0198801 1.70749e-19)
(-0.0642922 -0.00132916 -1.91253e-19)
(-0.0644469 0.0184198 -2.01642e-19)
(-0.0609395 0.0393429 3.70426e-21)
(-0.0523608 0.0611186 5.48975e-19)
(-0.0367029 0.08291 -1.11299e-19)
(-0.0112123 0.102624 0)
(0.027539 0.115687 0)
(0.0831076 0.112073 1.34915e-19)
(0.150021 0.0689651 1.30085e-19)
(-0.0511403 -0.0611293 1.51607e-18)
(-0.0491465 -0.0374093 0)
(-0.0518524 -0.0188575 0)
(-0.0536912 -0.00141516 3.64919e-19)
(-0.0530249 0.0164192 -1.87417e-19)
(-0.0488321 0.034674 2.06717e-19)
(-0.0399358 0.0529006 0)
(-0.024835 0.0700347 -3.24214e-19)
(-0.00177779 0.0838684 -1.12413e-19)
(0.0307693 0.0902776 2.34489e-19)
(0.0727588 0.0817547 -1.48848e-19)
(0.115729 0.045351 -3.06915e-20)
(-0.0506728 -0.0752277 -1.01232e-18)
(-0.0408588 -0.03918 6.03764e-19)
(-0.0427721 -0.018458 1.76123e-19)
(-0.044289 -0.00185106 1.85537e-19)
(-0.0433251 0.0142277 1.92161e-19)
(-0.0389877 0.0300981 0)
(-0.0303843 0.0453189 1.04236e-19)
(-0.0164899 0.0587912 2.16003e-19)
(0.00367774 0.0684839 1.0817e-19)
(0.0304674 0.0709442 -2.29949e-19)
(0.0622094 0.0608579 1.16531e-19)
(0.0910021 0.0311118 -5.39877e-20)
(-0.0433308 -0.0987509 1.92141e-18)
(-0.0301156 -0.0408992 -9.52076e-19)
(-0.0337121 -0.0176482 -1.89377e-19)
(-0.0358013 -0.00212598 -6.50464e-21)
(-0.0350072 0.0121964 -5.61383e-19)
(-0.030894 0.0259263 -1.95494e-19)
(-0.0229165 0.0386218 5.91861e-19)
(-0.0104716 0.0492538 0)
(0.00686265 0.0560426 4.19533e-19)
(0.0287563 0.0562466 0)
(0.0529876 0.0461893 -2.13241e-19)
(0.0730575 0.0221634 1.04387e-19)
(0.00951171 0.0612619 3.97572e-20)
(0.031711 0.0508762 -3.49081e-20)
(0.0445428 0.0335105 3.49057e-20)
(0.0483466 0.0151062 2.60019e-19)
(0.0452924 -0.00112081 2.51657e-19)
(0.037632 -0.013835 -2.37232e-19)
(0.0271218 -0.0226958 -1.20995e-19)
(0.0149464 -0.0278287 -3.56872e-19)
(0.00179073 -0.0294711 9.96159e-19)
(-0.012344 -0.0275202 0)
(-0.0341309 -0.0215544 9.02364e-19)
(-0.0897314 -0.00804076 0)
(0.00724808 0.0508799 3.87278e-20)
(0.0247461 0.0432967 0)
(0.035652 0.0299549 0)
(0.0395969 0.0151547 7.64332e-21)
(0.0378209 0.00158868 -2.46744e-19)
(0.031922 -0.00937405 -6.2228e-19)
(0.0233089 -0.0171757 -3.71755e-19)
(0.0130396 -0.0216739 0)
(0.00189511 -0.0228174 -4.9374e-19)
(-0.00977586 -0.0202913 1.37825e-19)
(-0.0281111 -0.0137015 4.68799e-19)
(-0.0662394 0.00977996 6.98403e-18)
(0.00563326 0.0430364 -3.76945e-20)
(0.0196148 0.0373179 3.47656e-20)
(0.0288391 0.0268889 2.38497e-19)
(0.0326439 0.0148895 -4.56574e-19)
(0.0317051 0.00353334 -3.83121e-19)
(0.0271449 -0.00588384 -7.31179e-20)
(0.0200949 -0.0127053 7.30435e-19)
(0.0114991 -0.0166347 3.69835e-19)
(0.00218014 -0.0174975 -4.96385e-19)
(-0.00723229 -0.0150899 0)
(-0.0209368 -0.00976561 -9.22693e-19)
(-0.0464873 0.00845688 3.97348e-20)
(0.00444079 0.0369927 7.37771e-20)
(0.0157681 0.0325806 0)
(0.0235645 0.0242875 -2.6789e-19)
(0.0271016 0.0144694 5.95762e-20)
(0.0267055 0.00493107 2.49642e-19)
(0.0231698 -0.00315322 1.05566e-18)
(0.0174019 -0.00910443 -6.18674e-19)
(0.0102418 -0.0125507 -6.03737e-19)
(0.00250545 -0.0132774 1.09962e-18)
(-0.00505791 -0.0111933 -5.36842e-19)
(-0.0150482 -0.0068859 0)
(-0.0316831 0.00575474 -5.52748e-18)
(0.00355477 0.0323057 -7.2092e-20)
(0.0128321 0.0288092 0)
(0.0194506 0.0221181 0)
(0.022664 0.0140101 1.93701e-19)
(0.0226225 0.00595691 6.38361e-19)
(0.0198695 -0.00100114 -5.55653e-19)
(0.015146 -0.00620455 4.8552e-19)
(0.00919669 -0.00926043 -4.86506e-19)
(0.00278305 -0.00994217 -9.66046e-19)
(-0.00329735 -0.00823536 -2.9177e-21)
(-0.0106551 -0.00477885 8.56556e-19)
(-0.0217602 0.00382498 0)
(0.00288604 0.0287515 3.53924e-20)
(0.0105885 0.0259363 -1.37205e-19)
(0.0162482 0.0204308 0)
(0.0191356 0.0136436 0)
(0.0193224 0.00676602 -5.65905e-19)
(0.0171594 0.000729398 -4.37587e-19)
(0.013277 -0.00386849 0)
(0.00832122 -0.00662067 4.78659e-19)
(0.00298764 -0.00731834 3.57937e-19)
(-0.00194428 -0.00600483 6.40377e-19)
(-0.00744338 -0.0032928 -1.63961e-18)
(-0.014943 0.00269012 1.03508e-17)
(0.00238513 0.0264898 1.06251e-27)
(0.00892551 0.0241389 1.71399e-19)
(0.0138341 0.0194816 -3.40135e-20)
(0.0164395 0.0136403 -6.50309e-20)
(0.0167617 0.00761582 1.28756e-19)
(0.0150283 0.00224284 4.3776e-19)
(0.0117903 -0.00193743 0)
(0.00760597 -0.00450822 0)
(0.00311502 -0.00529218 4.84514e-19)
(-0.000953785 -0.00434827 0)
(-0.0051845 -0.00229039 5.97432e-19)
(-0.0102384 0.00174643 -8.70143e-18)
(0.00206656 0.0262037 7.45816e-20)
(0.00780789 0.024138 1.46895e-19)
(0.0121975 0.0199461 2.8863e-19)
(0.0145846 0.0146054 0)
(0.0149855 0.00899659 6.86271e-20)
(0.0135286 0.00390999 -2.03288e-19)
(0.0107327 -0.000158925 2.66792e-19)
(0.00708012 -0.00275857 -7.8673e-19)
(0.00318201 -0.00374429 -3.85383e-19)
(-0.00029514 -0.00316857 0)
(-0.00365512 -0.00166587 1.63581e-18)
(-0.00704906 0.00118975 9.82101e-18)
(0.00192591 0.0294577 -1.80327e-19)
(0.0073045 0.0274221 -1.78249e-19)
(0.0114284 0.023213 -3.50366e-19)
(0.0137478 0.0177339 8.53562e-20)
(0.0141514 0.0118864 -1.61378e-21)
(0.0128487 0.00644721 -8.37573e-20)
(0.0102295 0.00196167 0)
(0.00684194 -0.00107171 -1.36506e-21)
(0.00324682 -0.00250732 -1.559e-19)
(9.8593e-05 -0.00236049 1.47089e-18)
(-0.00270965 -0.00136796 -1.84491e-18)
(-0.00497873 0.00073191 -1.00438e-17)
(0.00209558 0.0393155 1.34238e-19)
(0.00765831 0.0369443 -2.65142e-19)
(0.0119191 0.0319522 5.22065e-19)
(0.0144133 0.0253322 0)
(0.0147842 0.018127 0)
(0.0134807 0.0112134 -7.42599e-19)
(0.0106902 0.00534313 7.24148e-19)
(0.00719147 0.00109561 2.85414e-18)
(0.00350777 -0.001286 1.87438e-18)
(0.000363306 -0.00180233 2.39509e-19)
(-0.00215035 -0.00135128 -3.16743e-19)
(-0.00365344 0.000411623 0)
(0.00268465 0.0606145 0)
(0.00923991 0.0572859 5.56421e-19)
(0.0143322 0.0503928 -1.09573e-18)
(0.0173724 0.0411432 2.66021e-19)
(0.0178286 0.030799 -2.6611e-19)
(0.0162861 0.0206137 2.07319e-18)
(0.0129243 0.0116932 -2.03393e-18)
(0.0087728 0.00491552 -3.98921e-18)
(0.00448591 0.000645375 -3.92494e-18)
(0.000937824 -0.00105754 -3.95227e-18)
(-0.00159456 -0.00136679 5.37663e-18)
(-0.00237599 2.70272e-05 -1.92651e-18)
(0.00339851 0.0914699 2.11701e-18)
(0.0112685 0.0873881 -4.097e-18)
(0.0176097 0.0782921 0)
(0.0216076 0.0657685 -8.05126e-18)
(0.0224917 0.051401 -8.03476e-18)
(0.0209674 0.0369295 0)
(0.0172109 0.023966 1.93156e-18)
(0.0125301 0.013697 -3.82909e-18)
(0.00768597 0.00663534 2.97684e-20)
(0.00369972 0.00288868 1.89548e-18)
(0.000636348 0.000687987 -3.34462e-17)
(-0.000268682 0.000965472 0)
(0.00475077 -0.0947966 -4.80995e-18)
(-0.0174414 -0.036199 -1.5461e-18)
(-0.0251047 -0.0151364 9.7694e-19)
(-0.0282899 -0.00188687 0)
(-0.0279218 0.0105065 7.29751e-19)
(-0.0242253 0.0222718 1.90882e-19)
(-0.017021 0.0328494 -5.79583e-19)
(-0.00605543 0.0412783 -2.95503e-19)
(0.00871511 0.0460401 -5.12204e-19)
(0.0265914 0.0450054 0)
(0.0453147 0.0356956 2.09087e-19)
(0.059812 0.0163157 -5.04867e-20)
(0.0202678 -0.0707874 0)
(-0.0109578 -0.0297935 1.66635e-18)
(-0.01862 -0.0121618 -9.7751e-19)
(-0.0220874 -0.00133193 0)
(-0.0220109 0.00916535 5.38442e-19)
(-0.0187529 0.0191537 1.81797e-19)
(-0.0123473 0.0279586 -7.53122e-19)
(-0.00277517 0.034672 3.84061e-21)
(0.00975188 0.0380168 0)
(0.024389 0.0363558 0)
(0.0390545 0.0280473 0)
(0.0498416 0.0123521 -4.79494e-20)
(0.0169268 -0.0519443 0)
(-0.00784833 -0.0225721 1.01096e-18)
(-0.0140286 -0.0094263 9.78749e-19)
(-0.0171437 -0.000711405 0)
(-0.0171587 0.00808554 -5.27712e-19)
(-0.0142837 0.0165164 3.60003e-19)
(-0.00862624 0.0238403 1.01349e-18)
(-0.000314873 0.0292179 -1.84236e-19)
(0.0103035 0.0315666 -2.84489e-19)
(0.0223333 0.0296503 0)
(0.0339638 0.0223707 -1.89979e-19)
(0.0422064 0.00957999 4.70089e-20)
(0.0135203 -0.0384743 0)
(-0.00544175 -0.0168611 -1.29275e-18)
(-0.0105673 -0.00716322 -1.52905e-18)
(-0.0132101 -0.000145827 0)
(-0.0132033 0.0072026 -1.75309e-19)
(-0.0106443 0.0142991 -5.31458e-19)
(-0.00565746 0.0203966 7.16803e-19)
(0.00154908 0.0247278 3.66573e-19)
(0.0105555 0.0263797 3.88943e-21)
(0.0205 0.0244055 4.63642e-20)
(0.0298373 0.0181018 1.62822e-19)
(0.0362682 0.00759301 -2.29349e-20)
(0.0111697 -0.0292091 1.95718e-18)
(-0.00366729 -0.0126435 -6.20235e-19)
(-0.00791787 -0.00538435 7.44808e-19)
(-0.0100801 0.000312501 1.70266e-19)
(-0.00999028 0.0064558 8.54908e-19)
(-0.00768364 0.0124353 -1.71601e-19)
(-0.00327312 0.0175177 -1.31458e-18)
(0.00298289 0.0210407 1.02277e-21)
(0.0106528 0.0221909 3.61304e-19)
(0.0189223 0.0203007 -4.489e-19)
(0.0265078 0.0148522 0)
(0.031621 0.00614191 8.84531e-20)
(0.00946806 -0.0226947 0)
(-0.00241178 -0.0096114 -2.97132e-19)
(-0.00588912 -0.0040442 1.83162e-19)
(-0.00759887 0.000646091 0)
(-0.00739348 0.0058179 -5.02823e-19)
(-0.00527422 0.0108763 -6.76666e-19)
(-0.00133271 0.015143 5.17855e-19)
(0.00414265 0.0180345 -8.71816e-20)
(0.010735 0.0188425 8.71823e-20)
(0.0176918 0.0170851 3.53192e-19)
(0.0239349 0.0123821 0)
(0.0280793 0.0050797 -8.70303e-20)
(0.00800391 -0.018041 1.44608e-17)
(-0.00158362 -0.00752347 2.02552e-18)
(-0.0043862 -0.00310416 -4.86205e-22)
(-0.00568685 0.000855549 1.686e-19)
(-0.00533158 0.00527674 6.74334e-19)
(-0.00330245 0.00961631 8.50697e-19)
(0.000322273 0.0132552 -1.70645e-19)
(0.0052402 0.0156736 0)
(0.0110481 0.0162591 0)
(0.0170548 0.0146461 0)
(0.0223348 0.0105548 1.52485e-19)
(0.0257929 0.00432206 2.17518e-20)
(0.00672267 -0.0148053 -1.23431e-17)
(-0.00112462 -0.00624594 -2.64274e-18)
(-0.00337998 -0.00254857 0)
(-0.00430483 0.000922581 0)
(-0.00372665 0.0048365 -1.25751e-18)
(-0.00160815 0.00866845 7.25053e-19)
(0.00196041 0.0118942 -8.18209e-19)
(0.00667023 0.0139837 -9.16767e-19)
(0.0121065 0.0144532 9.1974e-20)
(0.017621 0.0129539 -4.62913e-20)
(0.0223554 0.00931006 -1.39259e-19)
(0.0254248 0.00382847 -9.20186e-20)
(0.00534651 -0.0126246 0)
(-0.0011091 -0.00566786 -3.32356e-19)
(-0.00293247 -0.00238878 2.31258e-19)
(-0.00347136 0.000844616 2.19389e-19)
(-0.00247987 0.00451034 8.73189e-19)
(7.36482e-05 0.00810993 -8.75886e-19)
(0.0040674 0.0111565 6.62507e-19)
(0.00915644 0.0130982 1.77722e-18)
(0.0148819 0.0135312 0)
(0.020567 0.0120871 5.59419e-20)
(0.0253455 0.00869036 -5.59419e-20)
(0.028417 0.00359402 1.11489e-19)
(0.00362117 -0.0111245 0)
(-0.0017557 -0.00575286 -4.51702e-19)
(-0.00326876 -0.00268953 -1.14003e-21)
(-0.00333079 0.000589593 2.9411e-18)
(-0.00152679 0.00436755 -2.94114e-18)
(0.00210771 0.00813403 1.96916e-18)
(0.00741923 0.0113362 -1.6334e-19)
(0.0139252 0.0133901 -1.6541e-18)
(0.021084 0.0138563 1.65862e-19)
(0.028065 0.012401 6.68136e-19)
(0.0338154 0.00892288 0)
(0.037528 0.00371497 1.66055e-19)
(0.00127909 -0.0098734 0)
(-0.00347811 -0.00658238 0)
(-0.00496518 -0.00371183 0)
(-0.00436312 -9.33728e-05 -5.46987e-18)
(-0.00112515 0.00433706 1.16562e-17)
(0.00465976 0.00881319 -3.43983e-18)
(0.0126953 0.0127364 3.47425e-19)
(0.0223111 0.0152333 -3.47178e-19)
(0.0327447 0.0159348 0)
(0.042856 0.0143608 -2.97886e-18)
(0.0511546 0.0103824 1.66201e-18)
(0.0566352 0.00440146 -4.35532e-19)
(-0.00138274 -0.00814589 5.02619e-17)
(-0.00677759 -0.00805251 0)
(-0.00892487 -0.00614935 -2.66877e-18)
(-0.00794669 -0.0024688 2.37131e-17)
(-0.00325267 0.00260522 -1.85027e-17)
(0.00494791 0.00797641 -5.32232e-18)
(0.0162776 0.0128662 1.4712e-17)
(0.0298218 0.0161457 -2.68338e-18)
(0.0446979 0.0174125 1.34194e-18)
(0.0595069 0.0161144 1.07743e-17)
(0.0721712 0.0118507 -5.38596e-18)
(0.0809503 0.00515176 -2.68247e-18)
)
;

boundaryField
{
    rotor
    {
        type            fixedValue;
        value           nonuniform List<vector> 
48
(
(-0.00660572 -0.201784 0)
(-0.0197889 -0.20092 0)
(-0.0328873 -0.199195 0)
(-0.0458448 -0.196618 0)
(-0.0586061 -0.193198 0)
(-0.0711164 -0.188952 0)
(-0.0833222 -0.183896 0)
(-0.0951712 -0.178053 0)
(-0.106613 -0.171447 0)
(-0.117597 -0.164107 0)
(-0.128079 -0.156065 0)
(-0.138012 -0.147354 0)
(-0.147354 -0.138012 0)
(-0.156065 -0.128079 0)
(-0.164107 -0.117597 0)
(-0.171447 -0.106613 0)
(-0.178053 -0.0951712 0)
(-0.183896 -0.0833222 0)
(-0.188952 -0.0711164 0)
(-0.193198 -0.0586061 0)
(-0.196618 -0.0458448 0)
(-0.199195 -0.0328873 0)
(-0.20092 -0.0197889 0)
(-0.201784 -0.00660572 0)
(-7.70459e-10 -0.214625 0)
(-8.61102e-10 -0.239875 0)
(-9.51744e-10 -0.265125 0)
(-1.04239e-09 -0.290375 0)
(-1.13303e-09 -0.315625 0)
(-1.22367e-09 -0.340875 0)
(-1.31431e-09 -0.366125 0)
(-1.40496e-09 -0.391375 0)
(-1.4956e-09 -0.416625 0)
(-1.58624e-09 -0.441875 0)
(-1.67688e-09 -0.467125 0)
(-1.76752e-09 -0.492375 0)
(-0.214625 3.8523e-10 0)
(-0.239875 4.30551e-10 0)
(-0.265125 4.75872e-10 0)
(-0.290375 5.21193e-10 0)
(-0.315625 5.66514e-10 0)
(-0.340875 6.11835e-10 0)
(-0.366125 6.57157e-10 0)
(-0.391375 7.02478e-10 0)
(-0.416625 7.47799e-10 0)
(-0.441875 7.9312e-10 0)
(-0.467125 8.38441e-10 0)
(-0.492375 8.83762e-10 0)
)
;
    }
    stator
    {
        type            noSlip;
    }
    front
    {
        type            empty;
    }
    back
    {
        type            empty;
    }
    procBoundary2to0
    {
        type            processor;
        value           nonuniform List<vector> 
20
(
(-0.828492 0.311313 -1.06112e-19)
(-0.334643 0.351987 6.17451e-20)
(-0.188566 0.263753 -3.06226e-21)
(-0.114274 0.194738 -3.34815e-20)
(-0.0697102 0.148465 0)
(-0.0460113 0.114389 2.65515e-20)
(-0.0317165 0.0899143 4.71045e-20)
(-0.0227385 0.0722292 -9.07419e-20)
(-0.0168738 0.0592259 1.0989e-21)
(-0.0128985 0.0494899 8.27651e-20)
(-0.0101132 0.0420578 -4.01752e-20)
(-0.00810332 0.036309 3.82869e-20)
(-0.0066207 0.0318227 -7.46964e-20)
(-0.00550699 0.0284269 3.65478e-20)
(-0.00467517 0.0262799 1.06418e-27)
(-0.00411906 0.0260984 7.61697e-20)
(-0.00380914 0.0294517 -1.84197e-19)
(-0.00385765 0.0394333 1.36993e-19)
(-0.00444161 0.0608189 0)
(-0.00531534 0.0911466 1.10303e-18)
)
;
    }
    procBoundary2to3
    {
        type            processor;
        value           nonuniform List<vector> 
20
(
(0.532048 -0.266457 -4.18596e-20)
(0.442108 -0.174327 1.29038e-27)
(0.314566 -0.0929567 2.66952e-20)
(0.225386 -0.0551575 2.80536e-20)
(0.164714 -0.0395805 5.21554e-20)
(0.124116 -0.0267098 -7.51154e-20)
(0.0962257 -0.0188816 -1.19431e-19)
(0.0765368 -0.0138933 1.66993e-19)
(0.0622576 -0.0105775 -4.64507e-20)
(0.051634 -0.00827222 -9.14481e-20)
(0.043564 -0.00660609 2.28899e-20)
(0.0373188 -0.00535823 0)
(0.032447 -0.00439703 6.52976e-20)
(0.0287265 -0.00364294 -1.06366e-19)
(0.0262982 -0.00305404 6.40893e-28)
(0.0258223 -0.00262693 6.83779e-20)
(0.0287554 -0.00238923 -1.10185e-19)
(0.0378754 -0.00241034 0)
(0.0572089 -0.00272774 0)
(0.0824811 -0.00311339 -1.31359e-18)
)
;
    }
}


// ************************************************************************* //
