/*--------------------------------*- C++ -*----------------------------------*\
  =========                 |
  \\      /  F ield         | OpenFOAM: The Open Source CFD Toolbox
   \\    /   O peration     | Website:  https://openfoam.org
    \\  /    A nd           | Version:  6
     \\/     M anipulation  |
\*---------------------------------------------------------------------------*/
FoamFile
{
    version     2.0;
    format      ascii;
    class       volScalarField;
    location    "500";
    object      epsilon;
}
// * * * * * * * * * * * * * * * * * * * * * * * * * * * * * * * * * * * * * //

dimensions      [0 2 -3 0 0 0 0];

internalField   nonuniform List<scalar> 
768
(
576.063
314.621
314.621
314.621
314.621
314.621
314.621
314.621
314.621
314.621
314.621
314.621
515.543
140.75
66.6868
52.1363
49.2648
48.7406
48.6452
48.631
48.6342
48.6273
48.6464
48.6542
466.522
112.866
40.9427
26.4558
23.5544
22.9725
22.8662
22.8488
22.8496
22.8552
22.8425
22.8492
426.008
99.6585
35.6967
23.1306
20.7181
20.2435
20.1539
20.1356
20.1343
20.134
20.134
20.1341
391.966
89.5319
32.8368
22.2508
20.2646
19.8918
19.8207
19.8073
19.8042
19.8057
19.8074
19.8061
362.959
81.0999
30.7275
21.7395
20.1
19.8125
19.757
19.7478
19.7452
19.7444
19.7447
19.7476
337.948
73.9819
29.1134
21.3095
20.0036
19.7677
19.7258
19.7174
19.7181
19.7216
19.7255
19.7224
316.16
67.9495
27.6733
21.0312
19.9325
19.7445
19.7093
19.6989
19.7016
19.7027
19.7044
19.7037
297.011
62.915
26.6982
20.7821
19.8736
19.7124
19.6909
19.6845
19.6816
19.6812
19.6867
19.6913
280.049
58.8381
25.8651
20.6682
19.8378
19.6947
19.6693
19.6671
19.6729
19.6694
19.6647
19.6712
264.918
56.1095
25.3486
20.5928
19.8026
19.6913
19.6632
19.659
19.6652
19.6567
19.6494
19.6505
251.339
51.946
24.3834
20.3828
19.7738
19.6769
19.6519
19.6391
19.6458
19.6446
19.6455
19.649
314.621
314.621
314.621
314.621
314.621
314.621
314.621
314.621
314.621
314.621
314.621
576.063
48.6798
48.7107
48.7405
48.7689
48.7924
48.8078
48.8138
48.8082
48.7886
64.4052
141.471
515.543
22.8722
22.8816
22.8833
22.9056
22.9298
22.9265
22.9211
22.9182
22.9235
37.7032
112.426
466.522
20.137
20.1398
20.1427
20.1475
20.1481
20.1491
20.1502
20.1532
20.1529
32.4711
98.7846
426.008
19.8052
19.8054
19.8066
19.8091
19.8112
19.8103
19.8103
19.8112
19.8116
29.8818
88.3846
391.966
19.747
19.7461
19.7483
19.7486
19.7469
19.7492
19.7507
19.7542
19.7523
28.0818
79.6738
362.959
19.7232
19.7224
19.7216
19.7204
19.7213
19.7271
19.7294
19.73
19.7282
26.4495
72.1771
337.948
19.6996
19.7005
19.7054
19.7045
19.7019
19.7086
19.7111
19.7141
19.7118
25.3285
65.7007
316.16
19.6875
19.6883
19.6926
19.6894
19.6895
19.6951
19.6902
19.6913
19.6952
24.272
60.0177
297.011
19.6768
19.6732
19.6698
19.6735
19.6731
19.6755
19.6741
19.674
19.6741
23.5058
55.0107
280.049
19.6581
19.6634
19.6639
19.6575
19.6529
19.6603
19.6668
19.6642
19.6586
22.8176
50.5614
264.918
19.642
19.6375
19.6367
19.6385
19.6454
19.6529
19.6465
19.6432
19.6428
22.2331
44.4616
251.339
58.6561
28.2977
21.4775
19.9531
19.7054
19.657
19.6362
19.6263
19.6259
19.6327
19.6377
19.6314
26.5229
21.6904
20.1702
19.7359
19.6557
19.6337
19.6164
19.6231
19.6286
19.6192
19.6104
19.6204
20.8462
20.1008
19.7618
19.6392
19.6138
19.6175
19.6117
19.6137
19.6128
19.6003
19.5981
19.6082
19.8582
19.723
19.645
19.6153
19.606
19.6059
19.6025
19.6041
19.6108
19.5988
19.5983
19.5969
19.6241
19.6304
19.6304
19.6333
19.6392
19.6322
19.6221
19.6256
19.6244
20.3362
27.3109
71.9944
19.6261
19.6201
19.6223
19.6192
19.6129
19.6108
19.6128
19.6219
19.619
19.8037
21.4022
29.9117
19.6072
19.6087
19.6165
19.6068
19.6094
19.6167
19.6221
19.6118
19.6007
19.6384
19.9925
21.4028
19.5873
19.5871
19.5885
19.587
19.5986
19.5991
19.6057
19.6007
19.5897
19.6077
19.6786
19.9219
19.6463
19.6122
19.5965
19.59
19.587
19.5861
19.5847
19.5842
19.5853
19.583
19.5826
19.5807
19.596
19.5825
19.576
19.5759
19.5768
19.5745
19.5736
19.5736
19.5738
19.5732
19.5715
19.5703
19.5782
19.569
19.5667
19.5659
19.5671
19.5648
19.5644
19.5641
19.5638
19.5632
19.5629
24.8652
19.5681
19.5578
19.5586
19.5562
19.5571
19.5555
19.5551
19.5555
19.5551
19.5544
22.8273
51.2227
19.5784
19.5792
19.5795
19.5795
19.5821
19.5824
19.5848
19.5841
19.5812
19.5839
19.6027
19.6446
19.5705
19.5704
19.5707
19.5705
19.5708
19.5709
19.5715
19.5716
19.5708
19.573
19.5763
19.5864
25.6429
20.2529
19.621
19.5665
19.5615
19.5608
19.5624
19.5627
19.5611
19.563
19.5631
19.568
51.9052
23.1263
19.8609
19.5781
19.5557
19.5532
19.5553
19.5555
19.5544
19.5549
19.5548
19.557
19.5607
19.5496
19.5501
19.5483
19.5491
19.5488
19.5474
19.5476
19.5476
20.0118
30.4147
171.989
19.5533
19.5428
19.5418
19.5411
19.5421
19.5426
19.5405
19.5407
19.541
20.1079
30.9737
166.16
19.5462
19.5364
19.5352
19.5349
19.5354
19.5359
19.5342
19.5346
19.5343
20.0706
30.288
160.713
19.5407
19.5298
19.5283
19.5289
19.5298
19.5291
19.5287
19.5287
19.5285
20.0053
29.4512
155.612
19.5338
19.5234
19.5226
19.5235
19.5242
19.523
19.523
19.5228
19.5227
19.9414
28.6599
150.824
19.5282
19.518
19.518
19.5182
19.5186
19.5175
19.5179
19.5177
19.5176
19.8847
27.9415
146.323
19.5234
19.5132
19.513
19.5133
19.5139
19.5128
19.5131
19.5129
19.5129
19.8352
27.2926
142.082
19.5184
19.5088
19.5084
19.5086
19.5091
19.5083
19.5083
19.5084
19.5084
19.7923
26.7057
138.081
19.5141
19.5045
19.5047
19.5041
19.5054
19.5037
19.5049
19.5036
19.5046
19.7545
26.1737
134.298
33.0473
33.9689
34.0246
34.0323
34.0221
34.0317
34.026
34.0265
34.0169
34.233
40.1926
130.717
90.9352
91.2879
91.3359
91.3587
91.3727
91.382
91.3841
91.3776
91.364
91.5411
93.9824
127.322
322.149
322.149
322.149
322.149
322.149
322.149
322.149
322.149
322.149
322.149
322.149
322.149
171.989
30.2396
20.2927
19.5972
19.5496
19.5465
19.5468
19.547
19.5467
19.5473
19.5465
19.5492
166.16
30.782
20.3626
19.5974
19.5433
19.5399
19.5392
19.5402
19.5399
19.5406
19.5394
19.542
160.713
30.1511
20.3023
19.587
19.537
19.5332
19.5338
19.5349
19.5343
19.5335
19.5332
19.5349
155.612
29.3655
20.2133
19.5741
19.5306
19.5279
19.5287
19.5288
19.5282
19.5279
19.5278
19.5297
150.824
28.6031
20.1303
19.5619
19.5243
19.5229
19.5231
19.5225
19.5223
19.5219
19.5224
19.524
146.323
27.9075
20.0536
19.5505
19.5187
19.5179
19.5175
19.517
19.517
19.5173
19.5174
19.5189
142.082
27.2723
19.9869
19.5405
19.5136
19.5131
19.5123
19.5127
19.5119
19.5129
19.5128
19.5138
138.081
26.6941
19.9285
19.5318
19.509
19.5084
19.5081
19.5086
19.5083
19.5084
19.5082
19.5092
134.298
26.1677
19.8772
19.5244
19.5043
19.5045
19.5034
19.5054
19.503
19.5057
19.5043
19.505
130.717
39.2309
34.2881
34.012
33.9929
33.9821
33.9776
33.9764
33.9835
33.9678
33.9656
33.9884
127.322
93.6118
91.465
91.3185
91.3101
91.2952
91.2805
91.2682
91.2586
91.2499
91.2481
91.1848
322.149
322.149
322.149
322.149
322.149
322.149
322.149
322.149
322.149
322.149
322.149
322.149
)
;

boundaryField
{
    rotor
    {
        Cmu             0.09;
        kappa           0.41;
        E               9.8;
        type            epsilonWallFunction;
        value           nonuniform List<scalar> 
48
(
576.063
314.621
314.621
314.621
314.621
314.621
314.621
314.621
314.621
314.621
314.621
314.621
314.621
314.621
314.621
314.621
314.621
314.621
314.621
314.621
314.621
314.621
314.621
576.063
576.063
515.543
466.522
426.008
391.966
362.959
337.948
316.16
297.011
280.049
264.918
251.339
576.063
515.543
466.522
426.008
391.966
362.959
337.948
316.16
297.011
280.049
264.918
251.339
)
;
    }
    stator
    {
        Cmu             0.09;
        kappa           0.41;
        E               9.8;
        type            epsilonWallFunction;
        value           nonuniform List<scalar> 
48
(
322.149
322.149
322.149
322.149
322.149
322.149
322.149
322.149
322.149
322.149
322.149
322.149
322.149
322.149
322.149
322.149
322.149
322.149
322.149
322.149
322.149
322.149
322.149
322.149
171.989
166.16
160.713
155.612
150.824
146.323
142.082
138.081
134.298
130.717
127.322
322.149
171.989
166.16
160.713
155.612
150.824
146.323
142.082
138.081
134.298
130.717
127.322
322.149
)
;
    }
    front
    {
        type            empty;
    }
    back
    {
        type            empty;
    }
    procBoundary1to0
    {
        type            processor;
        value           nonuniform List<scalar> 
20
(
58.6206
26.0768
20.8744
19.8502
19.6459
19.5957
19.5786
19.5701
19.561
19.5535
19.5466
19.5397
19.5339
19.5288
19.5239
19.519
19.5143
33.018
90.924
322.149
)
;
    }
    procBoundary1to3
    {
        type            processor;
        value           nonuniform List<scalar> 
20
(
71.7667
29.3154
21.3757
19.9173
19.6449
19.5856
19.5655
19.5559
19.5477
19.5419
19.5351
19.529
19.523
19.518
19.5134
19.509
19.5047
33.9922
91.1897
322.149
)
;
    }
}


// ************************************************************************* //
