/*--------------------------------*- C++ -*----------------------------------*\
  =========                 |
  \\      /  F ield         | OpenFOAM: The Open Source CFD Toolbox
   \\    /   O peration     | Website:  https://openfoam.org
    \\  /    A nd           | Version:  6
     \\/     M anipulation  |
\*---------------------------------------------------------------------------*/
FoamFile
{
    version     2.0;
    format      ascii;
    class       volScalarField;
    location    "500";
    object      p;
}
// * * * * * * * * * * * * * * * * * * * * * * * * * * * * * * * * * * * * * //

dimensions      [0 2 -2 0 0 0 0];

internalField   nonuniform List<scalar> 
768
(
-0.447274
0.32028
1.3273
2.32555
3.29751
4.24043
5.15076
6.03343
6.88871
7.72457
8.54352
9.35496
-0.516363
0.347056
1.38597
2.40322
3.38392
4.32676
5.23169
6.10369
6.94597
7.76604
8.56869
9.36217
-0.500878
0.430314
1.51082
2.55097
3.53951
4.47813
5.37032
6.22305
7.04208
7.83569
8.61036
9.37454
-0.39664
0.59653
1.71193
2.76819
3.75676
4.68282
5.5535
6.37833
7.16544
7.92446
8.66306
9.39024
-0.203162
0.850415
1.99323
3.05546
4.03298
4.93551
5.77455
6.56243
7.30979
8.02723
8.72363
9.40811
0.0860907
1.19715
2.35711
3.41139
4.36386
5.22966
6.02636
6.76817
7.46903
8.13908
8.78914
9.42665
0.483166
1.64486
2.80491
3.83288
4.7419
5.55717
6.29952
6.98811
7.63585
8.25572
8.85563
9.44537
1.00486
2.20427
3.33969
4.31514
5.15992
5.90827
6.58632
7.21399
7.80553
8.37201
8.92188
9.46237
1.68628
2.8953
3.96586
4.85395
5.60965
6.27513
6.87917
7.44094
7.9735
8.48619
8.98597
9.47842
2.56977
3.73705
4.68118
5.43832
6.07879
6.64722
7.17022
7.6631
8.13609
8.5957
9.04689
9.49318
3.73717
4.74778
5.47124
6.04808
6.55037
7.01262
7.45139
7.87544
8.29008
8.69876
9.10379
9.50676
5.34262
5.92126
6.29631
6.65045
7.0032
7.3581
7.7147
8.0729
8.43241
8.7934
9.15568
9.51882
10.1621
10.9739
11.7943
12.6313
13.4884
14.3718
15.2836
16.2266
17.1994
18.197
19.2034
19.9696
10.1518
10.9457
11.7495
12.5707
13.4147
14.2877
15.194
16.1375
17.1194
18.1366
19.1751
20.0374
10.1348
10.8993
11.675
12.4696
13.2901
14.1439
15.0376
15.9773
16.9673
18.008
19.0885
20.0188
10.1133
10.8408
11.5802
12.3401
13.1285
13.9545
14.8268
15.7543
16.7447
17.802
18.9176
19.9099
10.0884
10.7732
11.4701
12.1883
12.9367
13.7258
14.5665
15.4709
16.4503
17.5138
18.6571
19.7102
10.061
10.6987
11.349
12.0196
12.7212
13.4644
14.2626
15.1303
16.0845
17.1409
18.3014
19.412
10.0307
10.6204
11.2205
11.8404
12.4888
13.1781
13.9219
14.7387
15.6502
16.6795
17.8408
19.0029
9.99969
10.5399
11.0895
11.6556
12.2471
12.875
13.5541
14.3035
15.1496
16.1268
17.2629
18.4613
9.96831
10.4603
10.9592
11.471
12.0028
12.5642
13.1681
13.8338
14.5903
15.4785
16.5492
17.7586
9.9377
10.3833
10.8331
11.2912
11.7626
12.2543
12.776
13.3437
13.9829
14.7396
15.6823
16.8482
9.90873
10.3107
10.7139
11.1204
11.5328
11.9546
12.3911
12.851
13.351
13.9249
14.6457
15.6541
9.88188
10.2438
10.6039
10.9621
11.3186
11.6736
12.0269
12.3782
12.727
13.0769
13.4469
14.0206
7.82444
7.14943
7.07591
7.20357
7.41636
7.67274
7.95442
8.25227
8.5613
8.87862
9.20207
9.52941
8.75423
7.9599
7.68921
7.66844
7.77389
7.94907
8.16648
8.41126
8.67525
8.95337
9.24217
9.5381
9.11436
8.45394
8.13706
8.03902
8.07207
8.18538
8.35017
8.54972
8.77416
9.01748
9.2757
9.54483
9.28303
8.76148
8.45801
8.32693
8.31494
8.38325
8.50628
8.66794
8.85804
9.07055
9.30184
9.54875
9.85771
10.1836
10.5045
10.8185
11.1239
11.4177
11.6951
11.9468
12.1545
12.2761
12.1947
11.5081
9.83636
10.1307
10.4166
10.691
10.9507
11.1909
11.4031
11.5729
11.6722
11.6446
11.3653
10.5592
9.81832
10.0857
10.3408
10.58
10.7997
10.994
11.1532
11.2604
11.2868
11.1815
10.8561
10.1855
9.80398
10.0491
10.2771
10.4852
10.6702
10.8262
10.9432
11.005
10.9863
10.8478
10.5365
10.0064
9.37476
8.96115
8.68928
8.54887
8.51057
8.547
8.63748
8.76763
8.92794
9.11283
9.31992
9.54903
9.43056
9.0965
8.85824
8.72003
8.66718
8.6813
8.74648
8.85046
8.98474
9.14434
9.3286
9.5427
9.46729
9.19183
8.98382
8.85282
8.79253
8.79112
8.83658
8.91878
9.03008
9.16587
9.32642
9.52451
9.49289
9.26112
9.07869
8.9565
8.89292
8.8806
8.91059
8.97455
9.06548
9.17846
9.31234
9.48082
9.79455
10.0218
10.2254
10.4058
10.5607
10.6849
10.769
10.7989
10.7537
10.6063
10.3269
9.906
9.79246
10.0048
10.1855
10.3404
10.4691
10.567
10.6257
10.6332
10.5736
10.4285
10.1835
9.84302
9.8034
9.99964
10.1567
10.2877
10.3933
10.4693
10.5082
10.5002
10.4334
10.296
10.0815
9.80006
9.84035
10.0073
10.1376
10.2458
10.331
10.3887
10.4122
10.3934
10.3235
10.195
10.0067
9.76925
9.51148
9.31276
9.15145
9.03807
8.97357
8.95353
8.97132
9.02
9.09301
9.18453
9.28869
9.38791
9.52536
9.35203
9.20794
9.10266
9.03849
9.0129
9.02101
9.0569
9.11443
9.18702
9.2661
9.33038
9.53596
9.38235
9.25221
9.15406
9.09086
9.06126
9.06164
9.08693
9.13136
9.18807
9.24769
9.29158
9.54416
9.40601
9.28713
9.19513
9.13311
9.10059
9.09478
9.11134
9.14486
9.18864
9.23359
9.26459
9.55059
9.42456
9.3148
9.22791
9.16718
9.13247
9.12177
9.13118
9.15582
9.18921
9.22318
9.24572
9.55559
9.43918
9.33666
9.2541
9.19449
9.15825
9.14358
9.1473
9.16466
9.18992
9.21562
9.2323
9.55951
9.45063
9.35387
9.27482
9.21621
9.17888
9.16105
9.16029
9.17185
9.1908
9.21027
9.22285
9.56253
9.4595
9.36727
9.29103
9.23329
9.19515
9.17489
9.1706
9.17762
9.1917
9.20652
9.21614
9.56477
9.4663
9.3774
9.30353
9.24623
9.20785
9.18539
9.17879
9.18204
9.19272
9.20394
9.21153
9.5665
9.4712
9.38502
9.31257
9.25609
9.21698
9.19353
9.18461
9.18562
9.19339
9.2023
9.20828
9.5677
9.47466
9.3903
9.31894
9.26291
9.22342
9.19916
9.18874
9.18811
9.19394
9.20124
9.20616
9.56832
9.47628
9.39273
9.32183
9.26602
9.22632
9.20175
9.19061
9.18931
9.19425
9.20086
9.20532
9.92776
10.0253
10.126
10.2127
10.28
10.3224
10.3337
10.3073
10.2367
10.1175
9.95028
9.74611
9.9805
10.043
10.1186
10.1864
10.2383
10.2679
10.2696
10.2378
10.1677
10.0567
9.90709
9.72843
10.0153
10.0573
10.1134
10.1654
10.2042
10.2233
10.2174
10.1817
10.1127
10.0091
9.8734
9.71451
10.0386
10.0678
10.1093
10.1484
10.1764
10.1868
10.1748
10.1362
10.0686
9.97116
9.84698
9.70358
10.0545
10.0752
10.1058
10.1346
10.1537
10.1571
10.1402
10.0996
10.0333
9.94115
9.826
9.6948
10.0654
10.0803
10.1027
10.1234
10.1353
10.133
10.1123
10.0701
10.0051
9.91706
9.80938
9.68786
10.0729
10.0837
10.1
10.1143
10.1206
10.1137
10.0901
10.0465
9.98277
9.89797
9.79615
9.68229
10.078
10.0859
10.0976
10.1071
10.109
10.0985
10.0725
10.028
9.96519
9.88289
9.78574
9.67794
10.0815
10.0872
10.0956
10.1014
10.1001
10.0866
10.0593
10.0136
9.95207
9.87095
9.7777
9.67461
10.0838
10.0881
10.094
10.0972
10.0933
10.0781
10.0491
10.0034
9.94173
9.86252
9.77165
9.67214
10.0852
10.0885
10.0929
10.0943
10.0886
10.0721
10.0421
9.99625
9.93466
9.85677
9.76763
9.67045
10.0858
10.0887
10.0923
10.0929
10.0866
10.0695
10.0391
9.9932
9.93158
9.8545
9.76608
9.66978
)
;

boundaryField
{
    rotor
    {
        type            zeroGradient;
    }
    stator
    {
        type            zeroGradient;
    }
    front
    {
        type            empty;
    }
    back
    {
        type            empty;
    }
    procBoundary1to0
    {
        type            processor;
        value           nonuniform List<scalar> 
20
(
7.85764
8.78982
9.14859
9.31447
9.403
9.45551
9.48907
9.51166
9.52743
9.53876
9.54705
9.55322
9.55785
9.56138
9.56406
9.56611
9.56768
9.56887
9.56972
9.57018
)
;
    }
    procBoundary1to3
    {
        type            processor;
        value           nonuniform List<scalar> 
20
(
11.4415
10.505
10.1392
9.96605
9.87064
9.81191
9.77278
9.74529
9.72519
9.71013
9.69862
9.68973
9.68279
9.67738
9.67313
9.66985
9.66735
9.66549
9.66425
9.66374
)
;
    }
}


// ************************************************************************* //
