/*--------------------------------*- C++ -*----------------------------------*\
  =========                 |
  \\      /  F ield         | OpenFOAM: The Open Source CFD Toolbox
   \\    /   O peration     | Website:  https://openfoam.org
    \\  /    A nd           | Version:  6
     \\/     M anipulation  |
\*---------------------------------------------------------------------------*/
FoamFile
{
    version     2.0;
    format      ascii;
    class       surfaceScalarField;
    location    "500";
    object      phi;
}
// * * * * * * * * * * * * * * * * * * * * * * * * * * * * * * * * * * * * * //

dimensions      [0 3 -1 0 0 0 0];

internalField   nonuniform List<scalar> 
1468
(
-2.78817e-07
2.82581e-07
-2.09294e-07
-5.8469e-08
-9.42207e-08
-1.11621e-07
6.63291e-08
-1.44631e-07
2.29802e-07
-1.60139e-07
4.10004e-07
-1.59801e-07
5.62321e-07
-1.49765e-07
7.13076e-07
-1.29988e-07
8.19941e-07
-1.05921e-07
9.12919e-07
-7.6693e-08
9.54291e-07
-4.65168e-08
-1.32803e-08
9.78016e-07
3.63628e-07
-7.43457e-08
5.35992e-07
-2.2185e-07
7.20734e-07
-2.90683e-07
9.25123e-07
-3.36359e-07
1.12416e-06
-3.52631e-07
1.32093e-06
-3.42745e-07
1.49143e-06
-3.13816e-07
1.64517e-06
-2.70179e-07
1.76007e-06
-2.17546e-07
1.85013e-06
-1.57667e-07
1.89758e-06
-9.42978e-08
-2.7962e-08
1.9175e-06
4.08083e-07
-4.73105e-07
7.10644e-07
-5.13752e-07
1.00781e-06
-5.80073e-07
1.3018e-06
-6.17934e-07
1.57372e-06
-6.16242e-07
1.82439e-06
-5.80234e-07
2.03698e-06
-5.19187e-07
2.21845e-06
-4.40099e-07
2.35529e-06
-3.49628e-07
2.45736e-06
-2.51571e-07
2.51381e-06
-1.49359e-07
-4.45164e-08
2.53501e-06
5.4383e-07
-1.00196e-06
9.69959e-07
-9.26155e-07
1.38419e-06
-9.83093e-07
1.77602e-06
-9.95012e-07
2.12562e-06
-9.54916e-07
2.43319e-06
-8.73201e-07
2.68742e-06
-7.63811e-07
2.89651e-06
-6.36126e-07
3.05223e-06
-4.98769e-07
3.16541e-06
-3.55103e-07
3.22867e-06
-2.09274e-07
-6.17258e-08
3.25149e-06
7.36354e-07
-1.71175e-06
1.31604e-06
-1.48323e-06
1.86394e-06
-1.51123e-06
2.3599e-06
-1.46895e-06
2.78696e-06
-1.36375e-06
3.14647e-06
-1.212e-06
3.43584e-06
-1.03747e-06
3.66496e-06
-8.47645e-07
3.83413e-06
-6.56079e-07
3.95313e-06
-4.60838e-07
4.02047e-06
-2.69923e-07
-7.63859e-08
4.044e-06
9.91837e-07
-2.66004e-06
1.7631e-06
-2.21919e-06
2.46574e-06
-2.17213e-06
3.06566e-06
-2.03515e-06
3.5648e-06
-1.82355e-06
3.96086e-06
-1.57951e-06
4.27518e-06
-1.31731e-06
4.5096e-06
-1.06064e-06
4.68599e-06
-8.0448e-07
4.80047e-06
-5.62471e-07
4.87229e-06
-3.20652e-07
-9.02682e-08
4.89046e-06
1.3333e-06
-3.91477e-06
2.34728e-06
-3.17376e-06
3.21054e-06
-2.98462e-06
3.91292e-06
-2.68214e-06
4.4558e-06
-2.32316e-06
4.87638e-06
-1.95089e-06
5.18615e-06
-1.59358e-06
5.42146e-06
-1.25513e-06
5.58206e-06
-9.42791e-07
5.69704e-06
-6.46126e-07
5.75565e-06
-3.68124e-07
-9.44637e-08
5.78084e-06
1.79622e-06
-5.67084e-06
3.10815e-06
-4.4356e-06
4.13742e-06
-3.96884e-06
4.90812e-06
-3.40598e-06
5.46708e-06
-2.84122e-06
5.87296e-06
-2.31743e-06
6.1636e-06
-1.84985e-06
6.37211e-06
-1.43351e-06
6.51665e-06
-1.061e-06
6.6124e-06
-7.21227e-07
6.66659e-06
-4.0482e-07
-1.01366e-07
6.68482e-06
2.47317e-06
-8.07145e-06
4.12789e-06
-6.0489e-06
5.28746e-06
-5.09123e-06
6.06574e-06
-4.15038e-06
6.58719e-06
-3.33045e-06
6.94097e-06
-2.64122e-06
7.18418e-06
-2.06597e-06
7.35218e-06
-1.57698e-06
7.46652e-06
-1.15414e-06
7.54071e-06
-7.77342e-07
7.58295e-06
-4.32399e-07
-1.04777e-07
7.59764e-06
3.50062e-06
-1.15522e-05
5.51729e-06
-8.04528e-06
6.69949e-06
-6.25108e-06
7.38281e-06
-4.8176e-06
7.79695e-06
-3.72465e-06
8.05695e-06
-2.88584e-06
8.22921e-06
-2.22052e-06
8.3429e-06
-1.67692e-06
8.41945e-06
-1.21614e-06
8.46754e-06
-8.13914e-07
8.49556e-06
-4.49404e-07
-1.0728e-07
8.50568e-06
5.25463e-06
-1.67924e-05
7.44543e-06
-1.02299e-05
8.39162e-06
-7.19107e-06
8.82987e-06
-5.2479e-06
9.05884e-06
-3.94456e-06
9.19219e-06
-3.00929e-06
9.27561e-06
-2.29359e-06
9.32887e-06
-1.71997e-06
9.36273e-06
-1.23968e-06
9.38333e-06
-8.2436e-07
9.39505e-06
-4.51942e-07
-1.05043e-07
9.4007e-06
8.67141e-06
-2.54694e-05
1.00833e-05
-1.16516e-05
1.03099e-05
-7.42872e-06
1.03312e-05
-5.27354e-06
1.03209e-05
-3.93921e-06
1.03116e-05
-2.99992e-06
1.03027e-05
-2.28553e-06
1.02953e-05
-1.71018e-06
1.0287e-05
-1.22891e-06
1.02798e-05
-8.12553e-07
1.0275e-05
-4.42352e-07
1.02754e-05
-1.00986e-07
9.51964e-07
1.91027e-08
9.05211e-07
5.23061e-08
8.13656e-07
8.29908e-08
7.02981e-07
1.12228e-07
5.58779e-07
1.36588e-07
4.01992e-07
1.55709e-07
2.30325e-07
1.65883e-07
6.22193e-08
1.64946e-07
-9.15962e-08
1.49832e-07
-2.10237e-07
1.1575e-07
-2.76232e-07
6.29439e-08
-2.77306e-07
1.8953e-06
3.85676e-08
1.84431e-06
1.0503e-07
1.75418e-06
1.6881e-07
1.6365e-06
2.28985e-07
1.48628e-06
2.82117e-07
1.31387e-06
3.2546e-07
1.12142e-06
3.54069e-07
9.19914e-07
3.6268e-07
7.2025e-07
3.45808e-07
5.33827e-07
2.99179e-07
3.63605e-07
2.29797e-07
8.54977e-08
2.51174e-06
6.08375e-08
2.45227e-06
1.65816e-07
2.34988e-06
2.68516e-07
2.21061e-06
3.6703e-07
2.03096e-06
4.57935e-07
1.81643e-06
5.36915e-07
1.56852e-06
5.97563e-07
1.29487e-06
6.32241e-07
1.0043e-06
6.32642e-07
7.06324e-07
5.93507e-07
4.07072e-07
5.27134e-07
4.92801e-07
3.2268e-06
8.59753e-08
3.16113e-06
2.33744e-07
3.04754e-06
3.8039e-07
2.88931e-06
5.24421e-07
2.68104e-06
6.62572e-07
2.42436e-06
7.89994e-07
2.11838e-06
8.99122e-07
1.7669e-06
9.79233e-07
1.37798e-06
1.01863e-06
9.64427e-07
1.006e-06
5.42582e-07
9.49227e-07
1.03342e-06
4.01892e-06
1.13082e-07
3.9501e-06
3.07079e-07
3.82996e-06
4.9898e-07
3.65892e-06
6.94937e-07
3.42892e-06
8.87777e-07
3.13716e-06
1.07723e-06
2.77755e-06
1.25245e-06
2.35011e-06
1.40318e-06
1.8565e-06
1.50853e-06
1.30973e-06
1.54765e-06
7.32444e-07
1.52028e-06
1.76342e-06
4.87136e-06
1.45894e-07
4.79877e-06
3.77328e-07
4.68276e-06
6.19916e-07
4.50525e-06
8.64496e-07
4.26768e-06
1.12118e-06
3.95249e-06
1.38057e-06
3.55436e-06
1.64265e-06
3.05661e-06
1.88818e-06
2.45395e-06
2.09592e-06
1.75674e-06
2.23681e-06
9.87309e-07
2.28099e-06
2.73991e-06
5.75598e-06
1.72463e-07
5.69625e-06
4.47221e-07
5.58188e-06
7.27666e-07
5.41772e-06
1.02687e-06
5.18187e-06
1.34245e-06
4.86789e-06
1.68389e-06
4.44748e-06
2.04388e-06
3.89985e-06
2.41847e-06
3.20352e-06
2.78301e-06
2.33667e-06
3.08304e-06
1.32376e-06
3.27676e-06
4.06244e-06
6.66805e-06
1.98256e-07
6.61415e-06
5.03019e-07
6.51911e-06
8.23037e-07
6.37174e-06
1.16575e-06
6.16242e-06
1.54367e-06
5.8673e-06
1.96366e-06
5.4615e-06
2.43812e-06
4.90141e-06
2.96661e-06
4.12804e-06
3.53435e-06
3.10158e-06
4.1076e-06
1.79562e-06
4.57834e-06
5.84741e-06
7.5856e-06
2.17288e-07
7.54574e-06
5.46821e-07
7.47164e-06
8.95288e-07
7.35674e-06
1.2764e-06
7.18633e-06
1.70509e-06
6.94164e-06
2.19981e-06
6.58618e-06
2.78285e-06
6.06234e-06
3.47937e-06
5.28778e-06
4.31296e-06
4.12434e-06
5.25753e-06
2.46426e-06
6.22895e-06
8.31646e-06
8.49974e-06
2.28741e-07
8.47537e-06
5.73163e-07
8.42802e-06
9.40832e-07
8.35214e-06
1.34869e-06
8.23597e-06
1.81473e-06
8.06392e-06
2.36675e-06
7.80205e-06
3.04032e-06
7.39094e-06
3.8905e-06
6.70293e-06
4.99134e-06
5.52335e-06
6.44678e-06
3.50336e-06
8.25407e-06
1.18195e-05
9.40083e-06
2.3385e-07
9.39336e-06
5.82705e-07
9.37527e-06
9.58621e-07
9.3418e-06
1.37921e-06
9.28836e-06
1.86545e-06
9.20504e-06
2.4477e-06
9.07221e-06
3.17187e-06
8.84386e-06
4.11881e-06
8.40947e-06
5.43696e-06
7.45938e-06
7.39553e-06
5.26395e-06
1.04563e-05
1.70997e-05
1.02819e-05
2.30531e-07
1.02919e-05
5.73747e-07
1.03028e-05
9.47864e-07
1.03119e-05
1.36864e-06
1.03208e-05
1.85689e-06
1.03297e-05
2.43945e-06
1.03417e-05
3.16394e-06
1.0354e-05
4.11282e-06
1.0335e-05
5.45956e-06
1.0111e-05
7.63465e-06
8.69955e-06
1.1887e-05
2.57971e-05
1.66478e-05
-9.16751e-06
1.33223e-05
-8.34746e-06
1.22297e-05
-6.35226e-06
1.17632e-05
-4.81865e-06
1.15229e-05
-3.70641e-06
1.13831e-05
-2.86461e-06
1.12937e-05
-2.19844e-06
1.12319e-05
-1.64828e-06
1.11861e-05
-1.18128e-06
1.11522e-05
-7.7491e-07
1.11307e-05
-4.15653e-07
-9.00333e-08
1.11254e-05
1.78961e-05
-3.95793e-06
1.50419e-05
-5.51935e-06
1.36837e-05
-5.0159e-06
1.2997e-05
-4.15226e-06
1.26173e-05
-3.34119e-06
1.23872e-05
-2.64797e-06
1.2238e-05
-2.05826e-06
1.21334e-05
-1.5514e-06
1.20564e-05
-1.10839e-06
1.19982e-05
-7.18405e-07
1.19593e-05
-3.75736e-07
-7.54922e-08
1.19466e-05
1.77445e-05
-2.01897e-06
1.59017e-05
-3.70134e-06
1.47286e-05
-3.8662e-06
1.40258e-05
-3.46872e-06
1.35954e-05
-2.92619e-06
1.33193e-05
-2.38404e-06
1.31329e-05
-1.88089e-06
1.29993e-05
-1.42446e-06
1.28981e-05
-1.0106e-06
1.28182e-05
-6.3933e-07
1.27596e-05
-3.14909e-07
-4.72132e-08
1.27363e-05
1.75849e-05
-1.18048e-06
1.64346e-05
-2.57371e-06
1.55256e-05
-2.98193e-06
1.48976e-05
-2.86189e-06
1.44741e-05
-2.5227e-06
1.41855e-05
-2.11154e-06
1.39818e-05
-1.69181e-06
1.38318e-05
-1.28549e-06
1.37136e-05
-9.01328e-07
1.36146e-05
-5.45268e-07
1.35322e-05
-2.3325e-07
1.34883e-05
-3.61606e-09
1.11386e-05
2.21306e-07
1.11664e-05
5.48372e-07
1.12042e-05
9.10795e-07
1.12523e-05
1.32155e-06
1.13158e-05
1.79484e-06
1.14069e-05
2.3517e-06
1.15488e-05
3.02642e-06
1.17921e-05
3.87638e-06
1.22636e-05
4.9994e-06
1.33657e-05
6.54402e-06
1.67111e-05
8.54911e-06
9.36712e-06
1.19679e-05
2.02094e-07
1.20139e-05
5.04228e-07
1.20765e-05
8.49612e-07
1.21569e-05
1.24388e-06
1.22634e-05
1.69185e-06
1.24151e-05
2.20542e-06
1.2647e-05
2.80131e-06
1.30305e-05
3.50164e-06
1.37215e-05
4.31869e-06
1.50889e-05
5.18793e-06
1.796e-05
5.69066e-06
4.10994e-06
1.2769e-05
1.72846e-07
1.2835e-05
4.40875e-07
1.292e-05
7.67521e-07
1.30248e-05
1.14237e-06
1.3161e-05
1.56027e-06
1.33497e-05
2.02199e-06
1.3628e-05
2.52974e-06
1.40614e-05
3.07647e-06
1.47677e-05
3.62098e-06
1.59476e-05
4.02062e-06
1.7799e-05
3.84706e-06
2.1447e-06
1.35415e-05
1.21583e-07
1.3632e-05
3.5261e-07
1.37367e-05
6.6606e-07
1.38586e-05
1.0247e-06
1.40117e-05
1.41248e-06
1.42175e-05
1.82225e-06
1.45082e-05
2.2457e-06
1.49333e-05
2.65867e-06
1.55647e-05
2.99917e-06
1.64761e-05
3.1144e-06
1.76298e-05
2.70095e-06
1.29215e-06
2.14326e-06
-7.66484e-07
1.40875e-06
-1.86007e-06
7.27575e-07
-2.32208e-06
1.9844e-07
-2.35235e-06
-1.88774e-07
-2.15238e-06
-4.68843e-07
-1.84571e-06
-6.74442e-07
-1.49811e-06
-8.30696e-07
-1.13837e-06
-9.5809e-07
-7.80713e-07
-1.07314e-06
-4.32995e-07
-1.18721e-06
-1.19203e-07
8.70245e-08
-1.27223e-06
1.69977e-06
-5.35869e-07
1.21235e-06
-1.39111e-06
7.03262e-07
-1.83254e-06
2.68898e-07
-1.93776e-06
-7.18213e-08
-1.82917e-06
-3.31684e-07
-1.60259e-06
-5.29075e-07
-1.31473e-06
-6.83279e-07
-9.96922e-07
-8.12052e-07
-6.61583e-07
-9.37584e-07
-3.14206e-07
-1.08942e-06
3.18043e-08
2.65441e-07
-1.27086e-06
1.37562e-06
-3.9536e-07
1.03884e-06
-1.06993e-06
6.54233e-07
-1.46516e-06
3.01081e-07
-1.60116e-06
7.05161e-09
-1.55035e-06
-2.27029e-07
-1.38189e-06
-4.10513e-07
-1.14301e-06
-5.55862e-07
-8.6135e-07
-6.78131e-07
-5.46738e-07
-8.01805e-07
-1.94429e-07
-9.89288e-07
2.17463e-07
6.74728e-07
-1.39277e-06
1.13563e-06
-3.02825e-07
8.93841e-07
-8.4134e-07
5.98735e-07
-1.18543e-06
3.11524e-07
-1.32894e-06
6.03686e-08
-1.31401e-06
-1.46951e-07
-1.1882e-06
-3.13398e-07
-9.89488e-07
-4.45549e-07
-7.4044e-07
-5.5355e-07
-4.48512e-07
-6.55986e-07
-9.89845e-08
-8.25534e-07
3.85311e-07
-1.76164e-06
1.60554e-06
-1.17745e-06
2.86648e-08
-1.05539e-06
2.33464e-07
-9.3435e-07
5.48677e-07
-8.02901e-07
8.98043e-07
-6.43611e-07
1.2583e-06
-4.35986e-07
1.62032e-06
-1.54543e-07
1.97001e-06
2.3405e-07
2.27694e-06
7.63962e-07
2.47479e-06
1.44738e-06
2.44257e-06
2.1812e-06
1.97051e-06
8.65181e-07
-1.08037e-06
-1.59572e-07
-9.19625e-07
7.50932e-08
-7.88131e-07
4.20824e-07
-6.55023e-07
7.69432e-07
-4.97959e-07
1.10615e-06
-2.98644e-07
1.42564e-06
-3.81165e-08
1.71391e-06
3.03074e-07
1.94006e-06
7.38248e-07
2.04625e-06
1.24658e-06
1.9344e-06
1.73269e-06
1.48915e-06
6.26878e-07
-9.80048e-07
-5.70661e-07
-7.84275e-07
-1.17749e-07
-6.54231e-07
2.94739e-07
-5.27657e-07
6.47484e-07
-3.79397e-07
9.62722e-07
-1.9446e-07
1.24495e-06
3.99826e-08
1.48369e-06
3.33802e-07
1.65045e-06
6.86299e-07
1.69743e-06
1.07113e-06
1.55913e-06
1.40553e-06
1.15567e-06
4.75795e-07
-8.17849e-07
-1.51054e-06
-6.38596e-07
-2.93863e-07
-5.29963e-07
1.89664e-07
-4.17678e-07
5.39115e-07
-2.82689e-07
8.31203e-07
-1.15043e-07
1.08004e-06
9.21394e-08
1.27794e-06
3.42411e-07
1.40167e-06
6.29467e-07
1.41373e-06
9.22906e-07
1.26359e-06
1.16329e-06
9.18634e-07
3.76971e-07
9.55057e-07
-2.38007e-07
7.75244e-07
-6.73206e-07
5.44952e-07
-9.68157e-07
3.0997e-07
-1.10712e-06
9.63266e-08
-1.11279e-06
-8.55224e-08
-1.01773e-06
-2.33937e-07
-8.51629e-07
-3.50912e-07
-6.32431e-07
-4.39855e-07
-3.67089e-07
-5.00577e-07
-4.26196e-08
-5.05751e-07
3.8719e-07
1.1019e-06
8.1696e-07
-1.90661e-07
6.79181e-07
-5.4529e-07
4.96225e-07
-7.96339e-07
3.02433e-07
-9.24666e-07
1.20606e-07
-9.41941e-07
-3.81982e-08
-8.69879e-07
-1.69149e-07
-7.30916e-07
-2.71178e-07
-5.40205e-07
-3.42147e-07
-3.04592e-07
-3.72731e-07
-1.89544e-08
-3.20252e-07
3.31094e-07
7.75263e-07
7.09995e-07
-1.54478e-07
6.01503e-07
-4.45628e-07
4.53627e-07
-6.57834e-07
2.92128e-07
-7.73467e-07
1.36782e-07
-7.95826e-07
-1.75224e-09
-7.40799e-07
-1.16867e-07
-6.2415e-07
-2.0538e-07
-4.59858e-07
-2.62119e-07
-2.54263e-07
-2.7556e-07
-1.06173e-08
-2.13705e-07
2.65644e-07
5.61276e-07
6.26132e-07
-1.26455e-07
5.38745e-07
-3.65229e-07
4.16983e-07
-5.44502e-07
2.81067e-07
-6.45176e-07
1.47363e-07
-6.70454e-07
2.63501e-08
-6.27387e-07
-7.50622e-08
-5.31214e-07
-1.51916e-07
-3.90447e-07
-1.98396e-07
-2.15626e-07
-2.03727e-07
-1.1271e-08
-1.476e-07
2.04807e-07
4.07946e-07
5.60038e-07
-1.02766e-07
4.87787e-07
-2.99961e-07
3.86141e-07
-4.48663e-07
2.69894e-07
-5.37428e-07
1.54223e-07
-5.60457e-07
4.75555e-08
-5.29036e-07
-4.18147e-08
-4.47434e-07
-1.09484e-07
-3.30706e-07
-1.48391e-07
-1.81546e-07
-1.50971e-07
-1.46427e-08
-1.04923e-07
1.55171e-07
3.00872e-07
5.07298e-07
-8.37402e-08
4.46746e-07
-2.44484e-07
3.598e-07
-3.67659e-07
2.59767e-07
-4.4263e-07
1.57903e-07
-4.64022e-07
6.39607e-08
-4.40652e-07
-1.62167e-08
-3.73359e-07
-7.56859e-08
-2.77601e-07
-1.1007e-07
-1.53601e-07
-1.11982e-07
-1.8635e-08
-7.59762e-08
1.14391e-07
2.19563e-07
4.65336e-07
-6.68842e-08
4.1347e-07
-1.97024e-07
3.37847e-07
-2.97476e-07
2.50467e-07
-3.59942e-07
1.59525e-07
-3.79142e-07
7.61861e-08
-3.61232e-07
3.25281e-09
-3.0711e-07
-4.94171e-08
-2.28876e-07
-8.0943e-08
-1.28048e-07
-8.32064e-08
-2.00532e-08
-5.6102e-08
8.32096e-08
1.61568e-07
4.31819e-07
-5.17665e-08
3.86555e-07
-1.56644e-07
3.19558e-07
-2.33375e-07
2.42026e-07
-2.88001e-07
1.59839e-07
-2.98173e-07
8.49387e-08
-2.92477e-07
1.79598e-08
-2.42013e-07
-2.94317e-08
-1.88689e-07
-5.89983e-08
-1.01791e-07
-6.21116e-08
-2.34868e-08
-4.1956e-08
5.94422e-08
1.14604e-07
4.04853e-07
-4.11776e-08
3.65477e-07
-1.17042e-07
3.03705e-07
-1.81931e-07
2.35587e-07
-2.15846e-07
1.57802e-07
-2.35422e-07
9.23216e-08
-2.18132e-07
2.71327e-08
-1.94237e-07
-1.33617e-08
-1.38921e-07
-4.38972e-08
-8.53646e-08
-4.61257e-08
-1.60091e-08
-3.24074e-08
3.92066e-08
8.34609e-08
3.84359e-07
-2.96614e-08
3.47583e-07
-8.54703e-08
2.92216e-07
-1.30252e-07
2.27812e-07
-1.572e-07
1.57731e-07
-1.68501e-07
9.46081e-08
-1.59039e-07
3.59641e-08
-1.39209e-07
-4.05976e-09
-1.01968e-07
-3.1347e-08
-6.16056e-08
-3.59221e-08
-1.36941e-08
-2.50057e-08
2.61406e-08
5.61302e-08
3.68191e-07
-2.17091e-08
3.33873e-07
-5.68379e-08
2.82404e-07
-8.56061e-08
2.21718e-07
-1.01938e-07
1.56281e-07
-1.09623e-07
9.60057e-08
-1.02173e-07
4.12533e-08
-9.13681e-08
2.48237e-09
-6.60976e-08
-2.30825e-08
-4.22188e-08
-2.88654e-08
-1.07152e-08
-2.01428e-08
1.33876e-08
3.24644e-08
6.29318e-07
5.71261e-07
4.84749e-07
3.81578e-07
2.71457e-07
1.67969e-07
7.61783e-08
8.92242e-09
-3.37672e-08
-4.51947e-08
-3.24644e-08
-4.97168e-07
-1.01011e-06
-4.83747e-07
-3.03986e-07
-4.16742e-07
1.26238e-07
-3.23527e-07
4.50109e-07
-2.03878e-07
7.15071e-07
-5.44631e-08
9.3356e-07
1.26879e-07
1.0986e-06
3.3942e-07
1.19136e-06
5.7314e-07
1.1821e-06
8.03497e-07
1.04143e-06
9.81256e-07
7.40218e-07
3.03062e-07
-3.11554e-07
-6.94306e-07
-3.56112e-07
-2.5623e-07
-3.19644e-07
9.315e-08
-2.44426e-07
3.77716e-07
-1.39865e-07
6.12793e-07
-8.03151e-09
8.02241e-07
1.4994e-07
9.39989e-07
3.30324e-07
1.00976e-06
5.234e-07
9.90129e-07
7.05168e-07
8.56215e-07
8.42115e-07
6.06016e-07
2.50388e-07
-2.0467e-07
-4.86205e-07
-2.59435e-07
-1.98293e-07
-2.40328e-07
7.71772e-08
-1.79285e-07
3.20024e-07
-8.84757e-08
5.2419e-07
2.75171e-08
6.87651e-07
1.64957e-07
8.02635e-07
3.18873e-07
8.5605e-07
4.7884e-07
8.30575e-07
6.27203e-07
7.1472e-07
7.34405e-07
4.9763e-07
2.05882e-07
-1.38927e-07
-3.43778e-07
-1.88106e-07
-1.46173e-07
-1.7722e-07
6.90037e-08
-1.26671e-07
2.71549e-07
-4.74227e-08
4.45786e-07
5.46499e-08
5.84703e-07
1.74602e-07
6.8001e-07
3.06543e-07
7.21204e-07
4.41651e-07
6.94675e-07
5.62771e-07
5.90593e-07
6.49924e-07
4.12872e-07
1.72728e-07
-9.6391e-08
-2.44122e-07
-1.35857e-07
-1.04081e-07
-1.28036e-07
6.38824e-08
-8.48623e-08
2.30708e-07
-1.51302e-08
3.76937e-07
7.51095e-08
4.94555e-07
1.8051e-07
5.72905e-07
2.94592e-07
6.05774e-07
4.0956e-07
5.79215e-07
5.11695e-07
4.94203e-07
5.83058e-07
3.41085e-07
1.42526e-07
-6.78152e-08
-1.73706e-07
-9.75548e-08
-7.19056e-08
-9.01267e-08
5.8499e-08
-5.21647e-08
1.94063e-07
1.01391e-08
3.14233e-07
9.02896e-08
4.12449e-07
1.83987e-07
4.74764e-07
2.83236e-07
5.02929e-07
3.83562e-07
4.76589e-07
4.69253e-07
4.0799e-07
5.29582e-07
2.82608e-07
1.18936e-07
-4.80465e-08
-1.22737e-07
-6.95822e-08
-4.83483e-08
-6.12655e-08
5.28846e-08
-2.71167e-08
1.60762e-07
2.95909e-08
2.58947e-07
1.0101e-07
3.3815e-07
1.86065e-07
3.89909e-07
2.72492e-07
4.10543e-07
3.62425e-07
3.90401e-07
4.351e-07
3.34753e-07
4.86603e-07
2.31282e-07
9.65108e-08
-3.42649e-08
-8.64321e-08
-4.91326e-08
-3.11975e-08
-3.97214e-08
4.46799e-08
-8.05921e-09
1.30846e-07
4.39746e-08
2.04244e-07
1.08839e-07
2.72608e-07
1.86383e-07
3.04045e-07
2.6345e-07
3.32367e-07
3.4495e-07
3.02212e-07
4.072e-07
2.75051e-07
4.51803e-07
1.85093e-07
7.66964e-08
-2.44818e-08
-5.88764e-08
-3.4653e-08
-2.03623e-08
-2.35856e-08
3.82217e-08
5.19328e-09
9.88988e-08
5.53345e-08
1.62058e-07
1.1237e-07
2.02983e-07
1.87876e-07
2.43543e-07
2.53036e-07
2.43688e-07
3.33513e-07
2.46751e-07
3.83367e-07
2.01116e-07
4.23827e-07
1.44408e-07
5.90426e-08
-1.7949e-08
-3.86362e-08
-2.40979e-08
-1.14579e-08
-1.28867e-08
2.86849e-08
1.57658e-08
7.32819e-08
6.11997e-08
1.15567e-07
1.17092e-07
1.48121e-07
1.84338e-07
1.7235e-07
2.48755e-07
1.76925e-07
3.19478e-07
1.74752e-07
3.66516e-07
1.42073e-07
4.01368e-07
9.93214e-08
4.17787e-08
-1.35032e-08
-2.149e-08
-1.72142e-08
-4.59469e-09
-5.50033e-09
2.03227e-08
2.2243e-08
4.74792e-08
6.52638e-08
7.3407e-08
1.18771e-07
9.20261e-08
1.81604e-07
1.07182e-07
2.43729e-07
1.07451e-07
3.08236e-07
1.08721e-07
3.52775e-07
8.00365e-08
3.84602e-07
5.46176e-08
2.34679e-08
-2.09104e-08
-2.49065e-08
-4.23356e-09
4.34612e-08
1.16371e-07
2.08146e-07
3.13816e-07
4.21345e-07
5.26983e-07
6.04569e-07
6.58445e-07
)
;

boundaryField
{
    rotor
    {
        type            calculated;
        value           uniform 0;
    }
    stator
    {
        type            calculated;
        value           uniform 0;
    }
    front
    {
        type            empty;
        value           nonuniform 0();
    }
    back
    {
        type            empty;
        value           nonuniform 0();
    }
    procBoundary1to0
    {
        type            processor;
        value           nonuniform List<scalar> 
20
(
3.31505e-05
2.32173e-05
1.97651e-05
1.84836e-05
2.60654e-06
1.97179e-06
1.55309e-06
1.26214e-06
1.05098e-06
8.93962e-07
7.7397e-07
6.81425e-07
6.08597e-07
5.51161e-07
5.05263e-07
4.68732e-07
4.39613e-07
4.16529e-07
3.98637e-07
6.81027e-07
)
;
    }
    procBoundary1to3
    {
        type            processor;
        value           nonuniform List<scalar> 
20
(
-3.29657e-05
-2.31162e-05
-1.97006e-05
-1.84367e-05
-2.56961e-06
-1.94041e-06
-1.52568e-06
-1.23671e-06
-1.02716e-06
-8.70912e-07
-7.51832e-07
-6.59722e-07
-5.87495e-07
-5.30695e-07
-4.85536e-07
-4.49823e-07
-4.21737e-07
-3.99276e-07
-3.82086e-07
-6.52486e-07
)
;
    }
}


// ************************************************************************* //
