/*--------------------------------*- C++ -*----------------------------------*\
  =========                 |
  \\      /  F ield         | OpenFOAM: The Open Source CFD Toolbox
   \\    /   O peration     | Website:  https://openfoam.org
    \\  /    A nd           | Version:  6
     \\/     M anipulation  |
\*---------------------------------------------------------------------------*/
FoamFile
{
    version     2.0;
    format      ascii;
    class       volScalarField;
    location    "500";
    object      k;
}
// * * * * * * * * * * * * * * * * * * * * * * * * * * * * * * * * * * * * * //

dimensions      [0 2 -2 0 0 0 0];

internalField   nonuniform List<scalar> 
768
(
0.902032
0.944072
0.953859
0.956145
0.956722
0.956836
0.956905
0.956928
0.956958
0.956918
0.956992
0.956981
0.911384
0.963395
0.981686
0.986943
0.988309
0.988636
0.988746
0.988754
0.988755
0.988742
0.988753
0.988742
0.911338
0.966633
0.986792
0.992744
0.994318
0.994686
0.994788
0.994803
0.994835
0.994852
0.994842
0.994837
0.910656
0.967402
0.987643
0.993459
0.994995
0.995345
0.995415
0.995423
0.995444
0.995469
0.995475
0.995477
0.910721
0.967937
0.987843
0.99337
0.994743
0.995088
0.995142
0.995131
0.995153
0.995189
0.995191
0.995196
0.910794
0.968684
0.987917
0.993158
0.994374
0.994637
0.994691
0.994719
0.994759
0.994785
0.994729
0.994752
0.911997
0.96968
0.988102
0.992868
0.993992
0.994211
0.994332
0.994333
0.99438
0.994417
0.994385
0.994383
0.912486
0.970464
0.988287
0.9928
0.993777
0.993992
0.99398
0.994003
0.994011
0.994025
0.994014
0.994025
0.913491
0.971448
0.988515
0.992665
0.993495
0.993606
0.993583
0.993683
0.993766
0.993677
0.993669
0.993665
0.917327
0.972502
0.988867
0.992557
0.993279
0.993362
0.993287
0.993395
0.993484
0.99337
0.993273
0.993343
0.91879
0.97416
0.989121
0.992598
0.993079
0.993135
0.9932
0.993117
0.993154
0.993163
0.993051
0.992976
0.932422
0.979188
0.989876
0.99255
0.993009
0.992985
0.992868
0.99288
0.992943
0.9928
0.992823
0.992907
0.95701
0.956976
0.956946
0.956973
0.957009
0.95697
0.956946
0.956918
0.956913
0.956797
0.945358
0.897636
0.988755
0.988775
0.98878
0.988776
0.988772
0.988758
0.988748
0.98873
0.988467
0.985552
0.966127
0.90944
0.994839
0.994819
0.994826
0.994846
0.994864
0.994866
0.994859
0.994851
0.994537
0.991054
0.970116
0.910201
0.995478
0.995457
0.995488
0.995511
0.995496
0.995498
0.995502
0.995487
0.995189
0.991791
0.971028
0.909694
0.995198
0.995171
0.995183
0.995188
0.995194
0.995215
0.995246
0.995253
0.994972
0.99182
0.971673
0.909443
0.994741
0.994761
0.994774
0.994787
0.9948
0.99487
0.994897
0.994932
0.994692
0.991773
0.97227
0.909803
0.994394
0.994359
0.994442
0.994429
0.994487
0.994541
0.994532
0.994559
0.994366
0.991711
0.973569
0.910846
0.994016
0.994037
0.994054
0.994031
0.994108
0.994194
0.994206
0.994231
0.994039
0.991622
0.974661
0.911904
0.993597
0.993599
0.993714
0.993791
0.993737
0.993769
0.993799
0.993761
0.993664
0.991607
0.975748
0.913689
0.993337
0.993277
0.993292
0.993339
0.993341
0.993425
0.993481
0.993454
0.993565
0.991845
0.976838
0.914902
0.993073
0.99314
0.99309
0.993146
0.993124
0.993123
0.993138
0.993037
0.993162
0.99186
0.978217
0.916628
0.992787
0.992683
0.992848
0.992957
0.992824
0.992839
0.992849
0.99274
0.992888
0.991955
0.981584
0.924817
0.976272
0.988584
0.991581
0.992574
0.992798
0.992674
0.992475
0.992579
0.99255
0.992401
0.992541
0.992675
0.990225
0.991551
0.992241
0.992465
0.99238
0.992471
0.992333
0.992211
0.992192
0.992156
0.992196
0.992321
0.992408
0.992454
0.992316
0.992336
0.992402
0.992384
0.992151
0.992099
0.992092
0.992099
0.992225
0.992097
0.992228
0.992026
0.992116
0.992203
0.992096
0.99205
0.991955
0.991784
0.99191
0.991885
0.991937
0.992027
0.992523
0.992414
0.992574
0.992561
0.992406
0.992564
0.992621
0.992626
0.992666
0.992457
0.989299
0.969958
0.992264
0.992275
0.992308
0.992193
0.992131
0.992314
0.992331
0.992252
0.99228
0.99257
0.991769
0.988438
0.99191
0.991895
0.992075
0.992175
0.992045
0.99211
0.992132
0.991957
0.992017
0.992262
0.992185
0.991495
0.991833
0.991679
0.991697
0.991707
0.991725
0.991917
0.992088
0.991853
0.991781
0.991819
0.992046
0.99217
0.991969
0.991795
0.991706
0.991718
0.991723
0.991677
0.991646
0.991592
0.99158
0.99157
0.991571
0.991571
0.991718
0.991534
0.991485
0.991468
0.99149
0.991465
0.991431
0.991398
0.991382
0.991388
0.991372
0.991113
0.991528
0.991308
0.991301
0.991251
0.991287
0.991255
0.991239
0.991232
0.991227
0.99122
0.990968
0.988158
0.991356
0.991121
0.991118
0.991079
0.991113
0.991084
0.991073
0.991069
0.991067
0.990975
0.989079
0.973618
0.991543
0.991529
0.991531
0.991537
0.991537
0.99157
0.991598
0.991541
0.991592
0.991628
0.99165
0.991734
0.991045
0.991284
0.991339
0.991369
0.991346
0.991364
0.991343
0.991355
0.99137
0.991401
0.991421
0.991471
0.987725
0.990498
0.991085
0.991171
0.991164
0.991181
0.991158
0.991183
0.991194
0.991186
0.991225
0.991259
0.97296
0.987903
0.99064
0.990974
0.991005
0.991006
0.991001
0.991031
0.991026
0.99102
0.991047
0.991071
0.991178
0.990953
0.990942
0.990934
0.990955
0.990924
0.990915
0.990905
0.990898
0.99055
0.984549
0.935607
0.991034
0.990798
0.990791
0.990792
0.990807
0.99077
0.990763
0.990761
0.990756
0.990313
0.983222
0.928858
0.990886
0.990668
0.990655
0.990642
0.990666
0.990638
0.990632
0.990633
0.990626
0.990179
0.983133
0.928563
0.990763
0.990548
0.990528
0.990531
0.990541
0.990523
0.99052
0.990519
0.99051
0.990097
0.983397
0.929635
0.99063
0.990432
0.990406
0.990416
0.990424
0.990412
0.990405
0.990408
0.990394
0.990028
0.983732
0.930879
0.990532
0.99032
0.990299
0.990306
0.990312
0.990298
0.990297
0.990298
0.99029
0.989964
0.984069
0.932123
0.990428
0.990223
0.990198
0.990207
0.990213
0.990203
0.990199
0.990201
0.990192
0.989902
0.984378
0.933384
0.990331
0.990137
0.990115
0.990109
0.990116
0.990113
0.990108
0.990111
0.990105
0.989845
0.984664
0.934615
0.989403
0.989104
0.989089
0.989071
0.989087
0.989063
0.989086
0.989055
0.989078
0.988826
0.983988
0.935723
0.981411
0.980593
0.980545
0.980529
0.980527
0.980521
0.980527
0.980514
0.980525
0.980319
0.976186
0.936469
0.940366
0.937719
0.937546
0.937504
0.937509
0.937491
0.937501
0.937492
0.937506
0.937383
0.93527
0.911261
0.842357
0.840807
0.840531
0.840496
0.840568
0.840512
0.840487
0.840444
0.84044
0.840396
0.838955
0.82386
0.935971
0.983228
0.990054
0.990791
0.990852
0.990855
0.990853
0.990892
0.990864
0.990857
0.990879
0.990917
0.929389
0.981838
0.98976
0.990638
0.990716
0.990734
0.990725
0.990758
0.990724
0.990745
0.990747
0.99078
0.929007
0.981773
0.989645
0.990515
0.990593
0.99061
0.990613
0.99063
0.99061
0.99061
0.990613
0.990647
0.929974
0.982076
0.9896
0.990411
0.990486
0.990496
0.990513
0.99052
0.990504
0.990497
0.990486
0.990522
0.931215
0.982469
0.989576
0.990308
0.990381
0.990385
0.990404
0.990401
0.990389
0.990374
0.990376
0.990414
0.932466
0.982859
0.989557
0.990218
0.990277
0.990281
0.990299
0.990293
0.990296
0.990282
0.990283
0.990311
0.93369
0.983225
0.989536
0.990134
0.990178
0.990188
0.990195
0.990198
0.990192
0.990181
0.990185
0.990208
0.934896
0.983571
0.989514
0.990051
0.990093
0.990104
0.99011
0.990114
0.990107
0.990107
0.990101
0.990118
0.936072
0.983081
0.988547
0.989027
0.98905
0.989081
0.989052
0.989098
0.989042
0.989103
0.989066
0.989082
0.937076
0.975889
0.980139
0.980498
0.980529
0.980542
0.98054
0.980554
0.980538
0.980576
0.980573
0.980576
0.914053
0.935017
0.937301
0.937507
0.93754
0.937573
0.93759
0.937577
0.937585
0.937627
0.937661
0.93768
0.825524
0.839074
0.840321
0.840433
0.840487
0.840559
0.840657
0.840629
0.840676
0.840821
0.840877
0.841034
)
;

boundaryField
{
    rotor
    {
        type            kqRWallFunction;
        value           nonuniform List<scalar> 
48
(
0.902032
0.944072
0.953859
0.956145
0.956722
0.956836
0.956905
0.956928
0.956958
0.956918
0.956992
0.956981
0.95701
0.956976
0.956946
0.956973
0.957009
0.95697
0.956946
0.956918
0.956913
0.956797
0.945358
0.897636
0.902032
0.911384
0.911338
0.910656
0.910721
0.910794
0.911997
0.912486
0.913491
0.917327
0.91879
0.932422
0.897636
0.90944
0.910201
0.909694
0.909443
0.909803
0.910846
0.911904
0.913689
0.914902
0.916628
0.924817
)
;
    }
    stator
    {
        type            kqRWallFunction;
        value           nonuniform List<scalar> 
48
(
0.842357
0.840807
0.840531
0.840496
0.840568
0.840512
0.840487
0.840444
0.84044
0.840396
0.838955
0.82386
0.825524
0.839074
0.840321
0.840433
0.840487
0.840559
0.840657
0.840629
0.840676
0.840821
0.840877
0.841034
0.935971
0.929389
0.929007
0.929974
0.931215
0.932466
0.93369
0.934896
0.936072
0.937076
0.914053
0.825524
0.935607
0.928858
0.928563
0.929635
0.930879
0.932123
0.933384
0.934615
0.935723
0.936469
0.911261
0.82386
)
;
    }
    front
    {
        type            empty;
    }
    back
    {
        type            empty;
    }
    procBoundary2to0
    {
        type            processor;
        value           nonuniform List<scalar> 
20
(
0.9696
0.98842
0.991954
0.992064
0.99172
0.991475
0.99127
0.991079
0.990911
0.99078
0.990654
0.990531
0.990424
0.99031
0.99021
0.990123
0.989089
0.980577
0.937617
0.840876
)
;
    }
    procBoundary2to3
    {
        type            processor;
        value           nonuniform List<scalar> 
20
(
0.977468
0.990493
0.992545
0.992225
0.991959
0.991696
0.991503
0.991338
0.991163
0.991001
0.990864
0.990744
0.990621
0.990512
0.990422
0.990327
0.989404
0.981416
0.940341
0.842373
)
;
    }
}


// ************************************************************************* //
