/*--------------------------------*- C++ -*----------------------------------*\
  =========                 |
  \\      /  F ield         | OpenFOAM: The Open Source CFD Toolbox
   \\    /   O peration     | Website:  https://openfoam.org
    \\  /    A nd           | Version:  6
     \\/     M anipulation  |
\*---------------------------------------------------------------------------*/
FoamFile
{
    version     2.0;
    format      ascii;
    class       volScalarField;
    location    "500";
    object      nut;
}
// * * * * * * * * * * * * * * * * * * * * * * * * * * * * * * * * * * * * * //

dimensions      [0 2 -1 0 0 0 0];

internalField   nonuniform List<scalar> 
768
(
0.000127121
0.000254956
0.00026027
0.000261519
0.000261835
0.000261897
0.000261935
0.000261947
0.000261963
0.000261942
0.000261982
0.000261976
0.000145004
0.000593476
0.00130053
0.00168127
0.00178313
0.00180452
0.00180867
0.00180935
0.00180992
0.00180959
0.001809
0.00180826
0.000160225
0.00074502
0.00213689
0.00335093
0.00377562
0.00387468
0.00389441
0.00389632
0.00389713
0.00389905
0.00389562
0.00389315
0.000175199
0.000845097
0.00245512
0.00383436
0.00430176
0.00440481
0.0044245
0.00442808
0.0044292
0.00442938
0.00442929
0.00442903
0.000190443
0.000941585
0.00266109
0.00399221
0.00439407
0.00448067
0.0044969
0.00449965
0.00449986
0.00450005
0.00450032
0.0045003
0.000205696
0.00104101
0.00284024
0.00408421
0.00442696
0.00449447
0.00450647
0.00450845
0.00450929
0.00450986
0.00450953
0.00450923
0.000221503
0.00114361
0.00300308
0.00415769
0.00444445
0.00449938
0.00451066
0.00451149
0.00451125
0.00451174
0.00451214
0.00451277
0.000237021
0.00124697
0.00314785
0.00421536
0.00445891
0.00450328
0.00451168
0.00451278
0.004512
0.00451312
0.00451288
0.00451229
0.000252859
0.00134961
0.00327211
0.00425684
0.00447089
0.00450621
0.00451225
0.00451364
0.00451332
0.00451397
0.00451392
0.00451399
0.000270432
0.00144625
0.00337425
0.00429287
0.00447855
0.00450846
0.00451412
0.00451609
0.00451521
0.00451472
0.004515
0.00451595
0.00028679
0.00152657
0.00345585
0.00432222
0.00448178
0.00451041
0.00451677
0.00451748
0.00451541
0.0045145
0.00451359
0.0045144
0.00031132
0.00169314
0.0036302
0.00435171
0.00449203
0.00451329
0.00451749
0.00451805
0.0045163
0.00451545
0.00451534
0.00451538
0.000261992
0.000261973
0.000261957
0.000261972
0.000261992
0.00026197
0.000261957
0.000261942
0.000261939
0.000261875
0.000255651
0.000125885
0.00180746
0.00180638
0.00180524
0.00180419
0.00180338
0.00180274
0.00180247
0.00180261
0.00180238
0.00135732
0.000593804
0.000144386
0.00389382
0.00389154
0.00388726
0.00388566
0.00388647
0.00388616
0.00388581
0.00388659
0.0038834
0.00234669
0.000753316
0.000159825
0.00442859
0.00442764
0.00442718
0.00442732
0.00442718
0.00442638
0.00442596
0.00442551
0.0044229
0.00273539
0.000857111
0.00017483
0.0045003
0.0045002
0.00449987
0.00449971
0.00449991
0.00449996
0.00449971
0.00450001
0.00449752
0.0029624
0.000960821
0.000189909
0.0045097
0.00451026
0.00451038
0.0045097
0.00450967
0.00451001
0.00451018
0.00451094
0.00450848
0.00316912
0.00106347
0.000205249
0.00451192
0.0045118
0.00451309
0.00451291
0.00451225
0.00451196
0.00451237
0.00451322
0.00451111
0.00333251
0.00118104
0.000220945
0.00451183
0.00451193
0.0045133
0.00451357
0.00451334
0.00451288
0.00451329
0.004514
0.00451207
0.00349964
0.00130132
0.000236719
0.00451268
0.00451181
0.00451375
0.00451446
0.00451396
0.00451403
0.00451446
0.00451447
0.00451264
0.00363821
0.00142593
0.000252969
0.00451428
0.00451333
0.00451351
0.00451433
0.00451504
0.00451464
0.00451493
0.00451486
0.0045139
0.00381811
0.00154219
0.000269004
0.00451504
0.0045146
0.00451522
0.0045168
0.00451529
0.00451409
0.00451515
0.00451505
0.00451551
0.00392784
0.00167721
0.000285441
0.00451577
0.00451633
0.00451628
0.00451593
0.00451602
0.00451607
0.00451599
0.00451414
0.0045149
0.00398894
0.00194558
0.000306263
0.00146277
0.00307046
0.00411437
0.00444322
0.0045031
0.00451516
0.00451756
0.00451668
0.00451453
0.00451518
0.00451644
0.00451757
0.00337097
0.00406996
0.0043941
0.00448982
0.00451228
0.00451858
0.0045193
0.00451799
0.00451721
0.00451783
0.00451795
0.00451679
0.00426232
0.00441133
0.00448514
0.00450676
0.00451432
0.00451621
0.00451767
0.0045175
0.00451538
0.00451782
0.00451846
0.00451498
0.00446625
0.00449262
0.00450764
0.00451315
0.00451651
0.00451687
0.00451779
0.0045189
0.00451734
0.00451787
0.00451793
0.00451663
0.00451625
0.00451565
0.00451837
0.00451798
0.00451739
0.00451874
0.00451818
0.00451598
0.00451602
0.00435948
0.00324507
0.00117851
0.00451639
0.00451635
0.0045149
0.00451356
0.00451568
0.00451691
0.00451497
0.00451546
0.00451608
0.00448272
0.00409998
0.00304196
0.00451363
0.00451584
0.0045167
0.00451602
0.00451669
0.00451692
0.00451672
0.00451541
0.00451307
0.00450798
0.00442689
0.00415366
0.00451717
0.00451835
0.00451857
0.00451854
0.00451603
0.00451542
0.00451667
0.00451751
0.0045182
0.00451685
0.00449832
0.00445032
0.00450878
0.00451397
0.00451633
0.00451783
0.00451886
0.00451837
0.00451898
0.00451925
0.00451855
0.00451895
0.00451908
0.00451855
0.0045165
0.00451846
0.00451851
0.00451903
0.0045197
0.0045193
0.00451958
0.0045196
0.00451932
0.00451955
0.0045196
0.00451705
0.00451885
0.00451961
0.00451952
0.00451919
0.00452007
0.00451991
0.00451997
0.00452006
0.00452001
0.00452015
0.00451788
0.00353825
0.00451958
0.00452018
0.00452011
0.00451998
0.00452045
0.00452028
0.00452034
0.00452037
0.00452046
0.0045199
0.00385618
0.00166381
0.00451871
0.00451903
0.00451913
0.00451926
0.00451886
0.00451849
0.00451834
0.00451904
0.00451936
0.00451884
0.0045139
0.00450579
0.00451662
0.00451909
0.00451953
0.00451963
0.00451956
0.0045194
0.00451923
0.00451948
0.00451959
0.0045194
0.00451836
0.0045172
0.00342389
0.00436137
0.00450558
0.00451882
0.00451994
0.00451995
0.00451996
0.00451967
0.00451992
0.00451965
0.00451961
0.00451944
0.00164148
0.0037979
0.00444728
0.00451444
0.00451982
0.0045204
0.0045202
0.00452043
0.00452037
0.00452037
0.00452017
0.0045202
0.0045201
0.00452062
0.00452061
0.00452056
0.00452061
0.00452046
0.00452066
0.00452073
0.00452071
0.0044128
0.00286842
0.000458068
0.00452043
0.00452102
0.00452096
0.00452078
0.00452113
0.0045209
0.0045211
0.00452112
0.00452104
0.0043896
0.00280912
0.000467321
0.0045208
0.00452138
0.00452118
0.00452099
0.00452141
0.00452136
0.00452141
0.00452142
0.00452128
0.00439661
0.00287217
0.000482853
0.00452105
0.00452163
0.00452153
0.0045216
0.00452154
0.00452161
0.00452166
0.00452175
0.0045216
0.00441018
0.00295534
0.000499833
0.00452131
0.00452183
0.00452171
0.00452202
0.00452184
0.00452187
0.00452192
0.00452203
0.0045219
0.00442367
0.00303899
0.00051708
0.00452159
0.0045221
0.00452204
0.00452215
0.00452206
0.00452205
0.00452219
0.0045222
0.00452212
0.00443573
0.00311925
0.000534412
0.00452186
0.00452239
0.00452233
0.00452241
0.00452232
0.00452225
0.0045224
0.0045224
0.00452232
0.00444623
0.00319542
0.000551853
0.00452224
0.00452269
0.0045226
0.00452263
0.00452257
0.00452256
0.00452262
0.00452261
0.00452256
0.00445535
0.00326754
0.000569345
0.00451483
0.00451415
0.00451415
0.00451412
0.00451408
0.00451405
0.00451409
0.00451408
0.00451407
0.00445468
0.00332938
0.000586769
0.0026251
0.00254854
0.00254405
0.00254354
0.00254338
0.00254314
0.00254305
0.00254291
0.00254368
0.00252655
0.00213384
0.000603805
0.000875257
0.000866941
0.000866169
0.000865875
0.000865729
0.000865616
0.000865602
0.000865641
0.000865794
0.000863888
0.000837659
0.000586981
0.000198234
0.000197505
0.000197375
0.000197359
0.000197393
0.000197366
0.000197355
0.000197335
0.000197333
0.000197312
0.000196636
0.000189624
0.000458424
0.00287563
0.00434895
0.00450815
0.00451982
0.00452075
0.00452057
0.00452111
0.00452057
0.00452076
0.00452054
0.00452063
0.000467856
0.00281721
0.00433116
0.00450671
0.00452004
0.004521
0.0045209
0.00452121
0.00452091
0.004521
0.00452081
0.00452093
0.000483315
0.00287692
0.0043418
0.00450803
0.00452037
0.0045213
0.00452136
0.0045213
0.00452124
0.00452123
0.0045212
0.00452127
0.000500198
0.0029563
0.00435995
0.00451005
0.00452085
0.00452161
0.00452192
0.00452158
0.00452156
0.0045216
0.00452155
0.0045216
0.000517453
0.00303687
0.00437837
0.00451202
0.0045213
0.00452188
0.00452219
0.0045218
0.00452178
0.00452185
0.00452191
0.00452196
0.000534805
0.00311528
0.00439473
0.0045138
0.00452158
0.00452208
0.00452237
0.00452199
0.00452212
0.00452214
0.00452212
0.00452209
0.000552214
0.0031904
0.00440906
0.00451534
0.00452193
0.00452232
0.00452249
0.00452229
0.00452242
0.00452236
0.00452233
0.00452232
0.000569688
0.00326169
0.00442188
0.00451662
0.00452227
0.00452257
0.00452261
0.00452254
0.00452259
0.00452261
0.00452256
0.00452253
0.000587207
0.00332402
0.00442461
0.00450903
0.00451384
0.00451411
0.00451411
0.00451406
0.00451408
0.00451416
0.00451412
0.00451405
0.000604589
0.00218475
0.00252153
0.0025436
0.00254546
0.002546
0.00254621
0.00254684
0.00254606
0.00254761
0.00254776
0.00254589
0.000590583
0.000840518
0.000864456
0.000866214
0.00086637
0.00086677
0.00086673
0.000866835
0.000867177
0.000867101
0.000867176
0.000867866
0.000190391
0.000196692
0.000197277
0.000197329
0.000197355
0.000197388
0.000197434
0.000197422
0.000197443
0.000197512
0.000197538
0.000197612
)
;

boundaryField
{
    rotor
    {
        type            nutkWallFunction;
        Cmu             0.09;
        kappa           0.41;
        E               9.8;
        value           nonuniform List<scalar> 
48
(
1.5273e-05
3.27684e-05
3.29555e-05
3.2999e-05
3.301e-05
3.30121e-05
3.30135e-05
3.30139e-05
3.30145e-05
3.30137e-05
3.30151e-05
3.30149e-05
3.30155e-05
3.30148e-05
3.30142e-05
3.30148e-05
3.30154e-05
3.30147e-05
3.30142e-05
3.30137e-05
3.30136e-05
3.30114e-05
3.27931e-05
1.52219e-05
1.5273e-05
1.78352e-05
2.02545e-05
2.26343e-05
2.49979e-05
2.73376e-05
2.96763e-05
3.19836e-05
3.42841e-05
3.66306e-05
3.89156e-05
4.14757e-05
1.52219e-05
1.78104e-05
2.02387e-05
2.26199e-05
2.49772e-05
2.73205e-05
2.96552e-05
3.19723e-05
3.42881e-05
3.65783e-05
3.88667e-05
4.12967e-05
)
;
    }
    stator
    {
        type            nutkWallFunction;
        Cmu             0.09;
        kappa           0.41;
        E               9.8;
        value           nonuniform List<scalar> 
48
(
2.99505e-05
2.99195e-05
2.99139e-05
2.99132e-05
2.99147e-05
2.99136e-05
2.99131e-05
2.99122e-05
2.99121e-05
2.99112e-05
2.98823e-05
2.95779e-05
2.96116e-05
2.98847e-05
2.99097e-05
2.9912e-05
2.99131e-05
2.99145e-05
2.99165e-05
2.99159e-05
2.99168e-05
2.99198e-05
2.99209e-05
2.9924e-05
6.13198e-05
6.32424e-05
6.5359e-05
6.75152e-05
6.96755e-05
7.18311e-05
7.39809e-05
7.61254e-05
7.82642e-05
8.03916e-05
8.14825e-05
2.96116e-05
6.13079e-05
6.32244e-05
6.53435e-05
6.7503e-05
6.96631e-05
7.18182e-05
7.39691e-05
7.61142e-05
7.825e-05
8.03663e-05
8.13616e-05
2.95779e-05
)
;
    }
    front
    {
        type            empty;
    }
    back
    {
        type            empty;
    }
    procBoundary2to0
    {
        type            processor;
        value           nonuniform List<scalar> 
20
(
0.00117849
0.00301151
0.00416554
0.00445134
0.0045065
0.0045175
0.00451947
0.00452023
0.00452073
0.00452099
0.00452131
0.00452172
0.00452197
0.00452214
0.00452235
0.00452248
0.00451405
0.00254591
0.000867707
0.000197537
)
;
    }
    procBoundary2to3
    {
        type            processor;
        value           nonuniform List<scalar> 
20
(
0.0014661
0.00337736
0.00425712
0.00446588
0.00450831
0.00451663
0.00451907
0.00451956
0.00452007
0.0045205
0.00452071
0.00452106
0.00452131
0.00452165
0.00452185
0.00452208
0.0045148
0.00262531
0.000875248
0.000198241
)
;
    }
}


// ************************************************************************* //
