/*--------------------------------*- C++ -*----------------------------------*\
  =========                 |
  \\      /  F ield         | OpenFOAM: The Open Source CFD Toolbox
   \\    /   O peration     | Website:  https://openfoam.org
    \\  /    A nd           | Version:  6
     \\/     M anipulation  |
\*---------------------------------------------------------------------------*/
FoamFile
{
    version     2.0;
    format      ascii;
    class       volScalarField;
    location    "500";
    object      p;
}
// * * * * * * * * * * * * * * * * * * * * * * * * * * * * * * * * * * * * * //

dimensions      [0 2 -2 0 0 0 0];

internalField   nonuniform List<scalar> 
768
(
-0.451317
0.316166
1.32301
2.32102
3.29266
4.23522
5.1451
6.0273
6.88204
7.71734
8.5357
9.34655
-0.520181
0.343162
1.3819
2.3989
3.37928
4.32174
5.22622
6.09773
6.93945
7.75895
8.56099
9.35386
-0.504306
0.426803
1.50712
2.54702
3.53522
4.47344
5.36516
6.21737
7.03583
7.82884
8.60286
9.36639
-0.399565
0.593519
1.70873
2.76472
3.75293
4.67857
5.54875
6.37303
7.15954
7.91792
8.65584
9.38234
-0.205486
0.848009
1.99062
3.05258
4.02972
4.9318
5.77031
6.55761
7.30432
8.02108
8.71675
9.40048
0.0845614
1.1955
2.35527
3.40921
4.3613
5.22658
6.02272
6.76388
7.46406
8.13337
8.78266
9.41935
0.482629
1.64424
2.80403
3.83165
4.74018
5.5549
6.29658
6.98447
7.63144
8.25051
8.84957
9.43844
1.00579
2.20503
3.34011
4.31507
5.15926
5.90691
6.5842
7.21106
7.80174
8.36734
8.91629
9.45582
1.68895
2.89774
3.9678
4.85524
5.61016
6.27478
6.87792
7.43875
7.97036
8.48207
8.98085
9.47225
2.57472
3.74151
4.68483
5.44103
6.0805
6.64789
7.16984
7.66167
8.13361
8.59214
9.04224
9.4874
3.74469
4.75444
5.47666
6.05222
6.55326
7.01428
7.45185
7.87473
8.28823
8.69575
9.09961
9.50138
5.35317
5.93016
6.3034
6.6559
7.00716
7.36067
7.71595
8.07288
8.43116
8.79092
9.15195
9.51382
10.1531
10.9643
11.7841
12.6206
13.4772
14.36
15.2714
16.2141
17.1866
18.1839
19.1902
19.9563
10.1429
10.9362
11.7394
12.56
13.4034
14.2759
15.1818
16.1249
17.1065
18.1234
19.1617
20.0239
10.126
10.8899
11.6648
12.4589
13.2788
14.1321
15.0253
15.9646
16.9542
17.9946
19.0749
20.005
10.1047
10.8315
11.5702
12.3294
13.1172
13.9425
14.8143
15.7413
16.7313
17.7882
18.9036
19.8958
10.08
10.764
11.4602
12.1777
12.9254
13.7138
14.5539
15.4576
16.4366
17.4997
18.6427
19.6956
10.0529
10.6897
11.3392
12.0091
12.7099
13.4523
14.2498
15.1168
16.0705
17.1263
18.2864
19.3968
10.0229
10.6117
11.2108
11.8299
12.4774
13.1659
13.909
14.725
15.6357
16.6643
17.8251
18.9869
9.99217
10.5314
11.08
11.6452
12.2358
12.8628
13.5409
14.2894
15.1346
16.1109
17.2462
18.4443
9.96109
10.452
10.9499
11.4607
11.9915
12.5519
13.1548
13.8194
14.5747
15.4618
16.5315
17.7403
9.93079
10.3752
10.824
11.281
11.7514
12.242
12.7626
13.3289
13.9668
14.722
15.6633
16.8283
9.90215
10.3029
10.7051
11.1104
11.5217
11.9424
12.3776
12.8361
13.3345
13.9066
14.6253
15.6322
9.87561
10.2363
10.5952
10.9523
11.3077
11.6615
12.0136
12.3633
12.7103
13.0579
13.4252
13.9962
7.83911
7.16034
7.08439
7.21012
7.42124
7.67611
7.95637
8.25288
8.56062
8.87666
9.19879
9.52479
8.76966
7.97183
7.69863
7.67582
7.77952
7.95311
8.16906
8.41246
8.67511
8.95189
9.23932
9.53384
9.12954
8.46622
8.14701
8.04698
8.07827
8.18999
8.35329
8.55143
8.77452
9.01648
9.27327
9.54092
9.29756
8.77373
8.4682
8.33525
8.32157
8.38831
8.50987
8.67013
8.85887
9.07
9.29983
9.5452
9.85175
10.1764
10.4961
10.809
11.1132
11.4059
11.682
11.9322
12.138
12.2571
12.1723
11.4795
9.8307
10.1237
10.4084
10.6818
10.9404
11.1794
11.3905
11.5588
11.6562
11.6262
11.3435
10.5321
9.81294
10.079
10.3329
10.571
10.7897
10.983
11.141
11.2469
11.2717
11.1642
10.8359
10.1613
9.79885
10.0426
10.2693
10.4765
10.6606
10.8157
10.9317
10.9924
10.9722
10.8319
10.5183
9.98526
9.38863
8.97317
8.69952
8.55741
8.51751
8.55242
8.64147
8.77025
8.92923
9.11275
9.31836
9.54583
9.44373
9.1082
8.86842
8.72868
8.67434
8.68702
8.75082
8.85348
8.98647
9.14473
9.32752
9.53993
9.47984
9.20319
8.99387
8.8615
8.79984
8.79707
8.84122
8.92216
9.03224
9.16676
9.32591
9.52224
9.50484
9.27212
9.08858
8.96517
8.90033
8.88675
8.91551
8.97828
9.06806
9.17987
9.31248
9.47939
9.78962
10.0154
10.2179
10.3972
10.5514
10.6748
10.7582
10.787
10.7407
10.5919
10.3108
9.88775
9.78763
9.99842
10.178
10.3321
10.4601
10.5574
10.6155
10.6222
10.5617
10.4157
10.1694
9.82734
9.79853
9.99321
10.1492
10.2795
10.3846
10.4602
10.4986
10.4901
10.4226
10.2845
10.0692
9.78666
9.83509
10.0006
10.1301
10.2377
10.3226
10.38
10.4031
10.384
10.3137
10.1848
9.99595
9.75783
9.52293
9.32343
9.16117
9.0467
8.98105
8.95983
8.97647
9.02404
9.09598
9.18645
9.28956
9.38782
9.53634
9.36238
9.21747
9.11123
9.04601
9.01933
9.02636
9.06121
9.11776
9.18943
9.26764
9.33128
9.54654
9.39241
9.26158
9.16256
9.09839
9.06779
9.06716
9.09148
9.13502
9.19091
9.24981
9.29321
9.55437
9.41581
9.29634
9.20356
9.14066
9.1072
9.10045
9.11611
9.14881
9.19185
9.2362
9.26682
9.5605
9.43414
9.32387
9.23627
9.17473
9.13914
9.12756
9.13613
9.16001
9.19274
9.22619
9.24841
9.56525
9.44855
9.3456
9.26238
9.20203
9.16496
9.14947
9.15239
9.16906
9.19371
9.21895
9.23537
9.56899
9.45981
9.36271
9.28302
9.22375
9.1856
9.16702
9.16549
9.17641
9.19479
9.21385
9.2262
9.57185
9.46854
9.37602
9.29916
9.2408
9.20188
9.18091
9.17588
9.18231
9.19585
9.2103
9.21971
9.57408
9.47517
9.38612
9.31154
9.25377
9.21453
9.19148
9.1841
9.18684
9.19697
9.20788
9.21525
9.57569
9.48004
9.39362
9.32058
9.26356
9.2237
9.19961
9.18999
9.19046
9.19773
9.20633
9.21213
9.57682
9.48347
9.39883
9.32692
9.27035
9.23015
9.20525
9.19416
9.193
9.19836
9.20534
9.21009
9.57737
9.48508
9.40122
9.32981
9.27344
9.23306
9.20784
9.19606
9.19421
9.19869
9.20499
9.20929
9.92155
10.0183
10.1184
10.2047
10.2718
10.314
10.3252
10.2987
10.2278
10.1084
9.94101
9.73643
9.97364
10.0358
10.1109
10.1785
10.2303
10.2599
10.2616
10.2298
10.1597
10.0487
9.89908
9.72023
10.008
10.0498
10.1057
10.1575
10.1964
10.2156
10.2098
10.1742
10.1054
10.002
9.86648
9.70759
10.031
10.0601
10.1015
10.1406
10.1687
10.1794
10.1676
10.1293
10.0619
9.9648
9.84098
9.69773
10.0467
10.0673
10.0979
10.1268
10.1462
10.1499
10.1333
10.0931
10.0271
9.93544
9.82079
9.68986
10.0574
10.0723
10.0947
10.1156
10.1279
10.126
10.1057
10.0639
9.99935
9.91191
9.80483
9.68365
10.0647
10.0756
10.092
10.1066
10.1133
10.1068
10.0837
10.0407
9.9774
9.89329
9.79213
9.67867
10.0698
10.0777
10.0896
10.0993
10.1017
10.0917
10.0663
10.0224
9.96011
9.87859
9.78214
9.67477
10.0732
10.079
10.0876
10.0937
10.0929
10.08
10.0532
10.0082
9.9472
9.86698
9.77443
9.67177
10.0754
10.0798
10.086
10.0896
10.0861
10.0715
10.0431
9.99812
9.93706
9.85877
9.76862
9.66951
10.0769
10.0803
10.0849
10.0866
10.0815
10.0656
10.0362
9.99103
9.93012
9.85313
9.76471
9.66793
10.0774
10.0804
10.0843
10.0853
10.0794
10.063
10.0332
9.98799
9.92708
9.85086
9.76313
9.66725
)
;

boundaryField
{
    rotor
    {
        type            zeroGradient;
    }
    stator
    {
        type            zeroGradient;
    }
    front
    {
        type            empty;
    }
    back
    {
        type            empty;
    }
    procBoundary2to0
    {
        type            processor;
        value           nonuniform List<scalar> 
20
(
11.4661
10.526
10.1579
9.98314
9.88636
9.82653
9.78642
9.75811
9.73728
9.72161
9.70954
9.70019
9.69284
9.68711
9.6826
9.67914
9.67651
9.6746
9.67328
9.67274
)
;
    }
    procBoundary2to3
    {
        type            processor;
        value           nonuniform List<scalar> 
20
(
7.812
8.75384
9.11909
9.28987
9.38236
9.43815
9.47447
9.4994
9.51717
9.53019
9.53991
9.54727
9.5529
9.55723
9.56055
9.56309
9.56501
9.56642
9.56741
9.56788
)
;
    }
}


// ************************************************************************* //
